ITEM: TIMESTEP
100
ITEM: NUMBER OF ATOMS
256
ITEM: BOX BOUNDS pp pp pp
0.0000000000000000e+00 2.1039999999999999e+01
0.0000000000000000e+00 2.1039999999999999e+01
0.0000000000000000e+00 2.1039999999999999e+01
ITEM: ATOMS id type xu yu zu vx vy vz fx fy fz
1 1 0.295175 0.522909 -0.124704 4.42599 6.71584 -0.0429831 0.085799 0.0841032 0.0498639
2 1 2.51216 2.85457 0.106995 -0.785888 2.6105 3.39165 0.114541 0.104229 0.112197
3 1 2.58471 0.235944 2.48806 -0.611326 3.68051 -0.779199 -0.00857397 -0.0663928 0.0912225
4 1 0.132375 2.57823 2.75478 2.65907 0.215089 1.15956 -0.00920485 0.103607 -0.0262459
5 1 0.143335 0.219193 5.4541 1.96005 2.92257 1.14947 -0.127344 -0.0713731 -0.082002
6 1 2.29173 2.39219 5.23218 -3.3978 0.291544 -0.569303 0.0168083 0.433317 0.0279663
7 1 2.60568 0.370817 7.66243 0.121934 4.85818 -2.31635 0.0572631 0.0211617 0.0876207
8 1 0.226279 2.81475 8.29887 4.44912 0.766248 3.72051 0.0846909 -0.266225 -0.0724637
9 1 0.034961 0.0496588 11.0039 2.31831 2.03284 4.85524 0.205759 0.102149 -0.0537414
10 1 2.71501 2.6749 11.1592 0.43252 0.776236 5.73649 -0.115406 0.0171482 -0.189235
11 1 3.00672 -0.134496 13.515 3.65946 1.54322 5.11353 -0.0879743 0.253934 0.190431
12 1 0.0268471 2.73664 12.9228 2.1159 2.38365 -1.38577 0.109098 0.143565 0.147447
13 1 0.242087 0.0244055 15.8778 4.12854 1.60179 0.0990328 0.0900887 0.041637 -0.155917
14 1 2.45305 2.65665 15.7605 -0.405869 1.81146 -3.93064 0.230506 0.242243 -0.615863
15 1 2.52146 0.722393 18.0386 0.445206 7.49042 -3.59716 0.296604 -0.223701 0.262818
16 1 0.196276 2.65162 17.9694 1.88189 1.83412 -5.3664 -0.266759 0.260518 0.00941542
17 1 0.0163446 5.04731 -0.0145981 1.54142 -2.59504 1.49998 0.0586523 -0.0540807 0.145985
18 1 2.69605 8.05428 0.658513 0.572858 1.45854 8.53285 -0.0225616 -0.0842862 0.0470549
19 1 2.30992 5.03006 3.09855 -1.9124 -2.52028 4.64561 0.210315 0.109575 -0.119927
20 1 -0.0614461 8.34326 2.66585 0.686562 3.90202 0.274593 -0.00242355 -0.123213 0.00540139
21 1 -0.037026 5.45066 5.08547 0.204646 2.27907 -1.48043 -0.098257 0.0434954 0.0985602
22 1 2.23756 7.94748 5.60246 -2.82695 0.0529048 2.77615 0.25288 -0.0983876 -0.119557
23 1 2.49988 4.93636 8.19405 0.908364 -2.69118 3.88017 0.44476 0.102066 0.0104888
24 1 -0.163915 7.83408 7.56074 -1.5081 -0.880403 -3.86844 -0.14445 -0.0272847 0.00352247
25 1 0.285674 5.17133 10.3656 5.13696 -0.773008 -0.594006 0.0935863 0.0930711 0.232872
26 1 3.19359 7.78694 10.5968 4.96678 -0.563411 0.166847 -0.153085 0.0412226 -0.190886
27 1 2.62656 5.26971 13.3188 0.441613 -0.338365 1.36027 0.0595265 -0.0216861 -0.0864999
28 1 0.46667 7.93994 13.2524 5.43311 0.0378554 -0.723048 -0.163204 -0.090574 -0.423444
29 1 0.047437 5.15476 15.5247 2.63795 -0.756388 -2.97335 0.138613 0.0821453 -0.0091005
30 1 2.26872 8.05854 15.5085 -1.31898 -0.337178 -4.3006 0.477608 -0.34308 -0.066608
31 1 2.64965 5.10784 18.3586 -0.0872055 -2.17179 -2.34953 -0.13056 -0.0415644 -0.14085
32 1 0.387679 8.19863 17.9918 3.62365 2.21896 -4.8916 -0.260167 -0.150572 0.0520506
33 1 0.25648 10.7091 0.150456 3.64877 2.00167 3.51783 0.0369452 0.00321866 0.140729
34 1 2.72081 13.1357 0.526757 -0.207499 0.199073 6.66166 -0.23666 0.0666288 -0.17049
35 1 2.47119 10.3213 2.80537 0.530072 -0.807607 2.87272 0.28943 0.172951 0.177354
36 1 0.578258 13.1591 2.94433 8.0939 -0.0852581 4.0505 0.133473 0.00512673 0.111899
37 1 0.423558 10.6347 5.23168 5.99574 2.29773 0.540721 0.0843835 0.114703 0.166246
38 1 2.70574 13.3801 5.54436 0.652276 2.85931 2.70028 0.0477253 -0.00626917 -0.0154794
39 1 3.08497 10.5187 8.26413 1.9482 -0.892963 1.05855 -0.450731 -0.146195 -0.424492
40 1 0.177847 13.0667 7.63169 3.52522 -0.791347 -3.07855 0.105608 -0.0243714 -0.00181309
41 1 0.552179 10.2635 10.7893 8.47902 -3.13179 2.20343 0.154787 -0.0507218 -0.223396
42 1 3.17909 13.0177 10.4953 4.31969 0.233991 1.70852 -0.212204 0.169032 0.202168
43 1 2.67946 10.38 12.917 3.1227 -1.68967 -2.04398 0.488582 0.00424115 0.129861
44 1 0.583572 12.6307 13.2298 8.16281 -4.66752 0.469229 0.108741 0.245203 -0.101066
45 1 0.229142 10.6947 15.607 4.76844 0.906238 -1.74095 0.110045 -0.16097 0.0719247
46 1 2.65718 13.2023 15.9241 1.72575 -0.732206 -0.100286 0.146306 -0.225712 -0.250869
47 1 2.90306 9.91028 17.7726 4.8662 -4.25742 -8.01636 0.363184 0.385307 0.0322089
48 1 0.258236 13.6616 18.4825 2.51527 5.05291 -0.376761 -0.17771 -0.0438213 -0.0403721
49 1 0.0440055 16.0705 0.276338 1.97746 3.49084 4.60958 0.10399 0.0452923 0.119595
50 1 2.74728 18.1921 0.427037 0.483754 -3.54131 5.52273 -0.147408 -0.040006 -0.0443121
51 1 2.42343 15.8334 2.97005 -1.09625 -0.51338 4.71841 0.17507 -0.114696 0.096631
52 1 0.260206 18.6792 2.57888 4.87976 1.47606 -0.334259 0.167588 -0.0692602 0.0846398
53 1 -0.017471 15.5286 5.34522 1.45392 -2.80004 1.79373 0.0583476 0.046485 0.106358
54 1 2.83275 18.6994 5.23672 1.56025 1.4669 -2.07293 -0.118826 -0.0997032 -0.24116
55 1 2.32736 15.7926 8.147 -2.2414 -1.0365 2.09243 0.217203 -0.136267 -0.216523
56 1 -0.0402833 18.263 7.70759 0.620984 -3.30909 -2.31902 0.0166704 -0.132326 -0.0536003
57 1 0.772185 15.7399 10.7259 9.4345 -0.722062 2.20971 -0.0421092 -0.0863989 0.0938165
58 1 2.77932 18.3646 10.5336 1.18192 -3.19698 0.149771 -0.0129549 -0.146382 -0.0258809
59 1 2.99063 15.7119 12.8879 3.82458 -2.44239 -1.66138 -0.0218916 -0.275765 0.203376
60 1 -0.0510174 18.2017 13.0594 0.933576 -3.73572 -0.67385 0.12407 -0.0942393 0.0345359
61 1 0.745689 15.8861 15.6015 8.64949 0.830357 -1.99925 -0.0999613 -0.0596342 -0.0977603
62 1 2.80654 18.1693 16.219 2.26725 -2.66697 3.7679 0.0678454 0.206228 -0.159028
63 1 2.63722 15.4935 18.0501 1.9755 -2.43963 -3.94633 0.351809 0.110036 0.243384
64 1 0.221177 18.2542 18.3648 3.42312 -2.33853 -1.72747 0.0922261 -0.0468549 -0.115711
65 1 5.22977 0.106759 0.498667 0.144378 2.95357 7.83627 0.0936825 0.152904 0.298182
66 1 7.84153 2.91538 0.126095 -0.305883 3.70634 3.24497 0.00869808 0.12262 0.150609
67 1 8.13222 -0.0124774 2.81111 2.45496 -0.915855 0.501513 -0.0175017 -0.36375 -0.283459
68 1 4.63834 2.70743 2.76508 -6.42037 1.69247 0.640726 0.11333 0.143224 -0.189716
69 1 4.94784 0.653528 5.14781 -2.77736 8.13327 -0.063836 0.0599014 0.0274867 0.183649
70 1 7.90524 2.3045 4.69947 -0.954723 -2.51733 -5.86798 -0.160162 0.216746 0.0644865
71 1 7.86364 0.70024 7.80906 0.539194 9.77313 -0.615097 0.121223 0.225279 0.0632647
72 1 5.59955 2.98655 7.81081 2.96477 3.70456 0.117831 -0.157818 0.00402368 0.158262
73 1 5.06028 0.0794303 11.0722 -1.66218 2.87537 6.67413 0.0986322 0.123801 0.11991
74 1 7.9397 2.67941 10.8201 -0.402228 0.144414 2.39265 -0.13802 -0.15468 -0.140032
75 1 7.7069 0.275772 13.763 -2.32401 3.80522 4.87496 -0.149973 -0.135698 -0.348692
76 1 5.10184 2.72163 13.1048 -0.458594 1.71618 0.592985 0.222971 0.124668 0.213734
77 1 5.44728 0.528703 16.0447 1.20602 7.98485 1.50951 -0.13335 0.177754 -0.136879
78 1 8.36959 2.56605 15.4438 4.12478 0.956691 -1.67948 -0.177822 0.41428 0.40048
79 1 8.13078 -0.0809897 17.7985 2.82199 0.622814 -7.69865 0.0317067 0.0689879 -0.043443
80 1 5.01771 3.08233 18.1217 -2.82902 5.4911 -4.47483 0.072172 0.122666 -0.0733827
81 1 5.11276 5.62628 0.172861 -1.91218 2.71012 3.51655 -0.130125 -0.227184 0.125528
82 1 7.33312 7.74045 0.360116 -6.16939 -1.78678 6.03034 0.0556464 0.0372584 0.165585
83 1 8.07592 5.306 2.55484 2.43308 -0.196763 -1.16921 0.0392761 -0.120397 -0.0056508
84 1 5.16622 8.14272 2.74116 -0.549286 3.39687 0.620829 0.027059 0.0961333 0.00994224
85 1 4.84035 4.68875 5.33098 -6.09307 -6.20796 0.542317 -0.194238 0.112191 -0.0130072
86 1 8.2968 8.44948 5.16929 4.55826 5.35517 -0.252604 -0.0346656 -0.228325 0.198727
87 1 7.80245 5.26783 8.53465 -1.18289 1.83452 9.81116 0.00303602 0.267387 0.416777
88 1 5.38488 7.67071 7.68139 0.543161 -1.30616 -0.513963 -0.118736 0.120468 0.22291
89 1 5.15159 5.31282 10.5027 -1.16586 0.323171 0.569336 -0.000365647 -0.0557822 0.103837
90 1 7.59767 8.23249 10.817 -3.3481 2.02311 0.405312 -0.0797555 -0.294557 -0.445631
91 1 8.32816 4.8432 12.9214 5.33985 -3.98316 -1.16693 0.081274 0.117541 0.194067
92 1 4.82299 7.74303 13.1297 -3.05373 -1.30201 0.599224 0.221986 0.0555816 0.180055
93 1 5.25345 5.43138 15.7695 -0.759706 1.59522 -1.8197 -0.0404922 -0.117147 -0.330678
94 1 7.56402 8.24415 15.5573 -5.52726 3.77346 -1.04776 -0.292402 -0.0143762 0.26189
95 1 7.64367 5.42938 18.2842 -2.77206 0.744816 -2.72147 0.00487878 -0.14993 -0.090727
96 1 5.00074 7.38921 18.114 -3.62565 -5.94147 -3.54632 -0.0976089 -0.0425254 0.104015
97 1 5.19425 10.3828 -0.0710701 -0.547394 -0.561479 1.43521 0.0231699 0.13804 0.179541
98 1 7.9152 12.7245 0.723437 0.757106 -4.42266 9.88273 0.076241 -0.00772299 0.30617
99 1 7.96488 10.1737 2.81836 1.34759 -2.15912 1.1165 0.0207891 0.291625 -0.24246
100 1 4.83385 12.9315 2.54468 -3.20016 -2.57983 2.54969 0.330659 -0.0206459 0.576502
101 1 4.96793 10.7895 5.35652 -3.11743 2.72466 0.228212 -0.0223692 -0.0436162 -0.0740059
102 1 7.52696 12.9527 4.93665 -5.83878 -2.70392 -3.56971 -0.358471 -0.112458 -0.0778142
103 1 8.14227 10.1432 7.96829 1.7897 -2.68087 2.45224 -0.225108 0.27272 0.214582
104 1 5.20095 13.0361 7.96442 -0.414299 -0.248113 -0.612941 0.0499124 0.115916 -0.186354
105 1 5.16141 10.6568 10.2217 3.58256 -0.25311 0.556916 0.643749 -0.245614 0.524527
106 1 7.51626 12.9716 10.3289 -4.15401 -1.11618 -1.60017 -0.000557922 0.117381 0.0570004
107 1 7.61735 10.1106 13.1541 -3.18321 -2.05824 0.101709 -0.0278154 0.417456 0.00773261
108 1 5.30483 13.2974 13.2719 0.434993 2.28739 0.288711 0.0659818 0.108263 -0.173442
109 1 5.25184 11.0661 15.3945 -0.0499515 5.61218 -4.91755 0.0105016 -0.0951479 -0.0413612
110 1 8.08566 13.2699 15.9817 1.35731 2.64835 1.65629 -0.0683261 0.190037 -0.162457
111 1 8.28281 10.9728 18.1624 5.04791 6.43694 -4.39321 0.158556 0.132429 -0.113635
112 1 5.33044 12.985 18.1345 1.08361 -1.14428 -5.53972 0.0271911 0.0761709 -0.181892
113 1 5.26225 16.0748 -0.0381348 0.538999 1.73401 -0.332789 0.0811885 -0.269497 -0.207669
114 1 8.25841 18.3688 0.225423 1.87852 -0.970158 0.66884 -0.332712 0.0704995 -0.39558
115 1 7.8373 16.0358 2.3469 -1.57312 1.02595 -2.2159 -0.160102 -0.240276 0.117746
116 1 5.14214 17.8792 2.3597 -0.657096 -6.7957 -0.499534 0.0949047 0.0438378 0.453919
117 1 5.21507 15.6736 5.19446 -0.437822 -1.45602 -1.51133 0.0417403 -0.0481248 -0.071616
118 1 7.84794 18.1894 5.3086 0.0682405 -5.14552 -0.0579528 0.0900103 -0.343006 -0.0687599
119 1 7.86764 15.4716 7.71386 -1.0521 -4.646 -2.11441 -0.138469 -0.165225 -0.0436708
120 1 4.92401 18.1749 7.60087 -3.55577 -5.34178 -2.73848 -0.0110516 -0.317954 0.0301027
121 1 5.23148 15.4747 10.5584 0.192302 -3.68293 0.1586 0.105818 0.0218367 -0.0611336
122 1 7.86508 18.4856 10.4475 -0.0947872 -1.70238 -0.77473 0.0313144 -0.242417 0.00381746
123 1 8.31304 15.4139 12.9128 3.06633 -3.41415 -2.39003 -0.242387 0.192623 2.99227e-05
124 1 4.85356 18.1452 13.0455 -3.47839 -4.27398 -0.433752 0.143941 0.0231173 0.0638801
125 1 4.986 15.7683 15.7632 -2.57684 -1.06312 -1.11074 0.0817437 -0.109345 -0.153869
126 1 7.94323 18.6544 15.6955 1.25762 0.553159 -0.352479 0.0770356 -0.179136 0.0325177
127 1 7.61217 15.8591 18.1388 -2.53701 0.157931 -5.56065 0.165099 -0.14422 -0.215726
128 1 5.43639 17.9782 18.3197 1.235 -5.51646 -2.95212 -0.149235 0.0363788 -0.162705
129 1 10.5872 0.113307 0.0513265 -0.017768 1.65784 1.61096 -0.113905 -0.044687 -0.0134773
130 1 12.5221 2.94264 -0.1668 -5.385 3.51642 -0.20896 0.230814 -0.0635116 0.0353729
131 1 12.6353 -0.0660448 2.59159 -5.43998 0.584389 0.235851 0.0436534 0.0224631 0.0917382
132 1 10.3867 2.16899 2.44301 -1.47059 -3.33999 -1.86956 -0.0105693 0.283448 0.0321433
133 1 10.6759 0.114983 5.33841 1.29783 3.11274 0.36834 -0.0361292 0.100086 -0.0713372
134 1 13.6778 2.68847 4.78863 2.17147 0.919136 -2.11321 -0.583747 0.00631002 0.506666
135 1 13.3748 0.141928 8.16598 1.99998 3.77812 2.82646 -0.0747058 0.176167 -0.0494435
136 1 10.6815 2.42007 7.60643 2.25516 -2.14278 -3.31412 0.150909 0.00334985 -0.0020076
137 1 10.3323 0.0902216 10.6037 -1.97843 3.00284 1.33014 -0.00329481 0.149495 0.0380109
138 1 13.3303 2.79878 10.5484 2.57728 3.11127 -0.284551 0.0317137 0.183159 -0.0370826
139 1 13.0926 0.0694678 13.3351 -1.20044 3.22856 2.7935 -0.00639841 0.176781 0.0919265
140 1 10.5304 2.31637 13.3038 1.4673 -3.41745 0.478161 0.216581 -0.000106731 -0.237852
141 1 10.6275 0.0408113 15.8554 2.89254 2.01569 0.365495 0.168096 -0.00953722 -0.0531232
142 1 13.0872 2.65941 15.899 -1.15774 -0.660836 0.13903 -0.045342 -0.104967 -0.167049
143 1 12.8926 0.484702 18.4892 -3.29808 7.05004 -0.998447 -0.0594014 0.189178 -0.108392
144 1 9.99108 2.63449 18.2971 -4.66447 -0.178853 -3.27728 0.120086 0.0356927 -0.0798773
145 1 10.6057 5.24646 0.192249 -0.120084 1.09657 4.31429 -0.239051 0.257239 0.194681
146 1 13.2261 7.71148 0.600605 -0.936447 -1.06691 6.09301 -0.329997 0.0944392 -0.243686
147 1 12.9584 5.24979 2.54899 0.255277 -1.26365 0.0515017 0.242586 -0.138302 0.169901
148 1 10.7456 7.93954 2.74417 1.7725 1.53593 2.39813 -0.0924096 0.0831305 0.107251
149 1 11.0585 5.57589 5.19855 6.90008 4.19794 -0.274201 0.194451 0.0821821 0.0814831
150 1 13.0275 8.09859 5.59509 -1.46467 2.29889 3.08497 0.0439078 0.00260783 -0.0756995
151 1 13.4855 5.38771 8.04577 3.90816 1.47471 2.31213 -0.020207 -0.00963418 0.0891681
152 1 10.2232 8.00525 7.74622 -1.11113 0.719443 -1.00187 0.403896 -0.199012 0.117945
153 1 10.8373 5.38166 10.9308 2.79112 -0.403799 2.13715 -0.073125 -0.233025 -0.345117
154 1 13.3005 7.7464 10.6089 3.56433 -1.40401 0.387039 0.20644 0.0204727 -0.12134
155 1 13.1175 5.53408 12.9797 3.7221 1.03343 -1.0897 0.523159 -0.334571 0.0586663
156 1 10.9516 7.61892 12.9979 2.68758 -0.874114 0.103901 -0.290884 0.334464 0.24973
157 1 10.842 4.78994 15.444 3.89196 -5.79776 -3.68576 0.104798 -0.0218044 0.00752198
158 1 13.4357 8.06283 15.4406 3.44842 1.76776 -3.40267 -0.0013717 -0.0267734 0.0791051
159 1 13.282 5.197 18.1207 -0.493611 -1.83529 -6.19815 -0.388474 -0.295298 -0.291875
160 1 10.7083 8.03806 18.1757 2.18656 1.45427 -4.97137 0.0658975 -0.0590775 -0.220279
161 1 10.9792 10.6912 0.287446 5.3143 2.17917 5.17276 0.0799921 0.080887 0.142538
162 1 13.2498 13.5342 0.458055 -0.313047 2.39941 4.72344 -0.21858 -0.202372 -0.223064
163 1 13.1418 10.4229 2.6774 -0.418904 -2.74561 1.94286 -0.0148228 -0.19658 0.243182
164 1 11.2989 13.1239 2.88094 2.64311 -0.273583 -1.38568 -0.706381 -0.0768829 -0.4067
165 1 10.6585 10.6068 5.35154 1.3465 1.26059 -0.745613 -0.00360331 0.0970707 -0.188024
166 1 13.2992 13.0945 4.77147 7.1725 -0.511842 -0.0660631 0.697418 -0.00815278 0.651461
167 1 12.8051 10.6279 7.7023 -3.91054 1.4413 -1.26195 0.00305075 0.0404851 0.131042
168 1 10.2587 12.8816 7.97189 -3.24755 -2.67761 2.09554 -0.0926256 0.0336039 0.143521
169 1 10.7862 10.031 10.6184 1.53808 -5.47864 -0.391738 -0.165442 -0.0715403 -0.216425
170 1 12.9825 13.2597 10.0222 -2.21533 -0.393237 -7.57632 -0.0853325 -0.283447 -0.34202
171 1 12.8568 10.4889 13.0713 -3.19127 -0.6631 -1.42002 0.0185289 -0.0192433 -0.114492
172 1 9.8483 12.9148 13.1328 -6.21818 -5.47065 -0.365295 0.0967753 -0.543657 0.0122933
173 1 10.8285 10.3894 15.524 1.14085 -1.53594 -4.85428 -0.389749 -0.0759722 -0.353361
174 1 13.148 13.0442 15.4656 0.348197 -0.330958 -3.91392 -0.0121771 0.121999 -0.106303
175 1 12.6351 10.5756 17.8695 -3.70265 0.619134 -6.2193 0.26295 0.0641502 0.135961
176 1 10.4726 13.6431 18.6557 -1.28591 5.46461 0.584344 -0.0619816 0.0810943 -0.163712
177 1 10.4425 15.5323 0.377351 0.0434302 -2.61412 6.03011 0.0717082 -0.0384795 0.0756697
178 1 13.034 18.0607 0.358454 -2.56604 -4.34469 4.84214 -0.193925 0.0175247 0.0443244
179 1 13.2482 15.6177 2.69346 -0.00720381 -1.56179 2.36428 -0.17224 0.0141574 0.243723
180 1 10.343 18.1274 2.23784 1.01799 -4.13338 -1.26159 0.446616 -0.00625997 0.504365
181 1 10.8968 16.0008 5.13865 4.81734 1.65091 -1.20328 0.0558586 -0.0641664 0.0298382
182 1 13.2886 18.0155 5.27525 1.53184 -6.24658 0.0558054 -0.037966 -0.078718 -0.0333701
183 1 12.9412 15.6722 7.9922 -1.5955 -0.584518 0.245549 0.0955829 0.042413 -0.203487
184 1 10.962 18.4234 8.02872 5.04397 -2.09148 0.900931 0.0460986 -0.168165 -0.084632
185 1 10.7184 15.6926 10.808 3.17664 -1.25233 3.00589 0.0485012 -0.088768 -0.0410531
186 1 13.047 17.9645 10.4289 -0.499117 -6.76923 -0.233786 0.0776129 -0.125104 0.141044
187 1 12.9819 16.1248 13.4776 -0.727787 3.19614 3.65987 0.242563 -0.182864 0.0358498
188 1 10.7882 18.1229 13.4359 1.70948 -3.19202 1.76595 -0.269443 0.288703 -0.242229
189 1 10.5401 15.9555 15.5439 -0.224941 0.265122 -0.743403 -0.100964 -0.301283 0.354834
190 1 13.3331 18.3807 15.7169 1.58641 -2.20498 0.144558 -0.0741218 -0.0320553 0.148211
191 1 13.4413 15.8694 18.2189 2.32249 0.884733 -3.08932 -0.0974374 -0.0370296 -0.0239457
192 1 10.2039 18.2584 18.1646 -3.63511 -2.72065 -4.54346 -0.0280195 -0.0672104 -0.145173
193 1 15.8721 0.333414 0.303016 1.38027 5.22137 5.18461 0.100688 0.174919 0.197157
194 1 18.6205 2.38051 0.0992663 0.546636 -2.36838 1.98307 -0.12587 0.0428534 0.0865329
195 1 18.2158 -0.242259 3.01142 -3.55657 -1.2803 4.41499 -0.14579 0.103542 0.0449956
196 1 15.6851 2.92924 2.79966 1.44416 3.11497 0.357095 0.407644 -0.0761289 -0.270656
197 1 15.7171 0.284057 5.61008 0.767052 5.49312 4.02852 0.174684 0.157163 0.00375055
198 1 18.1 2.99845 5.21753 -5.40062 3.15563 0.685274 -0.123057 -0.212195 0.19827
199 1 18.426 0.0537283 7.84456 -1.5468 2.16411 -0.632781 -0.120073 0.140299 -0.00378109
200 1 15.8252 2.84739 7.90194 -0.264574 2.53485 0.786142 -0.101133 0.0597164 0.065847
201 1 15.8833 0.549117 10.3549 0.830245 8.46542 -1.89717 -0.0261105 0.216776 -9.00845e-05
202 1 17.9669 2.97371 10.6398 -4.89159 2.37223 0.920318 0.227471 -0.228016 -0.030859
203 1 18.8346 0.120225 13.1405 2.94202 2.13787 0.534534 -0.126444 0.0326043 0.0967307
204 1 15.733 2.78416 13.7566 -2.0849 2.6526 3.77025 -0.258223 0.0803719 -0.522012
205 1 15.9503 0.567516 15.9013 0.0174024 4.21153 0.569378 -0.315709 -0.649024 -0.184441
206 1 18.2026 2.51285 15.5937 -1.42658 0.177997 -1.69068 0.412584 0.28112 0.0362369
207 1 18.2358 -0.356924 18.3222 -2.43522 -2.63363 -1.74513 -0.0251399 0.0981357 -0.0580251
208 1 15.8695 2.71636 17.8814 0.223784 2.91332 -6.55505 -0.0755667 0.424458 0.186833
209 1 15.6832 4.90824 0.408337 -2.3063 -2.9589 5.70572 -0.148513 0.0762308 -0.00638708
210 1 18.5445 8.23588 -0.0313192 0.298642 3.57092 1.31051 -0.0420449 0.00245441 0.121329
211 1 18.3575 5.15249 3.08083 -3.7279 -0.855311 4.44751 -0.247771 0.0984029 -0.169208
212 1 15.608 7.55415 2.30761 -0.331222 -3.68231 -0.347364 0.365245 -0.0209771 0.520118
213 1 15.6596 5.11769 5.39502 -1.33957 0.0356172 1.53077 -0.117615 0.172564 -0.0042347
214 1 17.7897 7.49776 5.30589 -8.20733 -3.75435 -0.170473 -0.079853 0.0789532 -0.135409
215 1 18.1049 5.4219 7.72571 -4.99134 1.2016 -0.782414 -0.0698392 -0.0636955 0.174489
216 1 15.6933 7.68774 7.86378 -2.10358 -1.90387 0.144791 -0.139832 0.118947 0.115376
217 1 15.9118 5.09206 10.823 -2.41749 -0.355156 1.37183 -0.642325 0.287482 -0.304029
218 1 18.6402 7.86002 10.4732 0.430103 -0.757809 -0.437365 -0.141504 -0.0395594 -0.0277762
219 1 17.8953 5.20821 13.1085 -6.52341 -0.592174 0.762713 0.0455039 0.00344942 0.225969
220 1 15.93 7.83791 12.9743 -0.199272 -1.04307 -1.95786 -0.164262 -0.012019 -0.0558184
221 1 15.2174 5.3638 15.3343 -5.75512 1.98221 -3.96316 0.0537865 0.155823 0.19173
222 1 18.183 7.81485 15.4527 -3.67374 -1.30987 -4.20879 -0.00258804 -0.110865 -0.0565157
223 1 18.3996 5.35726 18.1442 -1.79988 0.30394 -4.46116 -0.128705 -0.115163 -0.196948
224 1 15.0264 7.49856 18.6053 -7.40287 -2.53136 0.261479 0.108674 0.36057 -0.0649615
225 1 15.4895 10.2641 0.336089 -2.78773 -3.5227 4.82287 0.0388785 -0.176456 -0.0123576
226 1 18.2946 13.2438 -0.123579 -2.6607 1.09263 0.624304 -0.100042 -0.0122188 0.16187
227 1 18.0298 10.3434 2.43734 -6.43286 -2.55348 -2.03417 -0.171299 -0.11772 -0.00634086
228 1 15.4915 12.6219 2.36035 -2.70471 -4.65619 -1.13277 0.141365 0.164432 0.277054
229 1 16.1507 10.399 5.1872 2.72093 -1.49969 -1.71541 -0.232711 0.00348483 -0.134049
230 1 18.4808 13.4014 5.6107 -1.15635 2.09678 2.46472 -0.0925484 -0.132417 -0.242796
231 1 18.3064 10.67 7.50246 -3.08025 1.59774 -4.01782 -0.142148 -0.00825209 0.0681562
232 1 15.8555 13.465 7.98919 -0.940096 3.05849 0.291269 -0.328041 -0.118422 -0.145694
233 1 15.629 10.431 10.3651 -2.28795 -1.68272 -1.72106 -0.0885155 -0.0907693 -0.0673921
234 1 18.1086 13.4169 10.5651 -4.92995 2.47329 -0.48958 -0.131737 -0.0596945 -0.155513
235 1 18.1189 10.4413 12.7297 -4.49209 -1.42303 -4.47696 -0.0703543 -0.115352 -0.0123213
236 1 16.392 13.1066 13.2207 6.24026 -1.22469 2.77987 -0.0424689 -0.148823 0.304486
237 1 16.0961 10.3175 15.61 2.91058 -2.39429 -3.03458 -0.0670907 -0.00446135 -0.126831
238 1 18.4203 13.5952 15.6493 -1.16943 4.95025 -1.84159 0.00785476 -0.0020997 -0.0363566
239 1 18.3847 10.165 18.4973 -1.8484 -3.29791 -1.24931 -0.149373 0.0173889 -0.193379
240 1 15.5291 12.7787 17.7491 -2.94158 -3.33594 -9.72173 -0.00172452 0.0893896 -0.268728
241 1 15.3824 16.0499 0.190953 -3.3776 -0.25805 -0.34084 0.135262 -0.466611 -0.555313
242 1 17.9948 18.1493 0.303842 -5.30786 -3.51762 3.8972 -0.0721732 -0.0689662 0.0517492
243 1 18.1802 15.6443 2.94608 -3.59806 -1.8924 3.23425 0.0584926 -0.108556 -0.0625638
244 1 15.6325 17.5355 2.56867 -1.59589 -7.41286 2.03428 0.056315 0.496241 0.430757
245 1 15.8708 15.7599 5.05342 0.686938 -1.88316 0.25964 -0.0845478 -0.334851 0.428093
246 1 18.2707 18.403 5.56071 -2.76236 -1.93352 3.54623 -0.075439 -0.167618 0.0355545
247 1 18.2431 15.4099 7.81366 -2.98895 -2.1924 -0.453737 0.0153097 0.374965 0.10407
248 1 15.4525 18.3061 7.51719 -4.33044 -3.39813 -4.57701 -0.111644 -0.137205 -0.064226
249 1 15.868 16.0158 10.0141 0.142315 2.75173 -5.83995 -0.0553657 0.100285 -0.0192374
250 1 18.6245 18.2261 10.898 1.36995 -2.42769 4.10264 0.00127854 0.0508723 0.0110699
251 1 17.7652 15.9296 12.8557 -8.58269 1.89414 -2.07539 -0.0795826 -0.0299267 0.0832144
252 1 15.711 18.4608 13.4321 -1.0757 -1.52576 3.16733 -0.0598162 -0.0865469 -0.0445868
253 1 15.6301 15.7842 15.6719 -2.44758 -0.365208 -2.84668 -0.187834 -0.12713 -0.221612
254 1 18.2922 18.2801 15.4094 -3.178 -2.2928 -4.13169 -0.116532 0.0209754 -0.024142
255 1 17.8652 15.9619 17.725 -5.56283 1.20568 -7.85945 0.153844 -0.110857 0.111811
256 1 15.8931 18.3796 18.31 0.250475 -2.12478 -3.19388 -0.137174 -0.10003 -0.172044
ITEM: TIMESTEP
200
ITEM: NUMBER OF ATOMS
256
ITEM: BOX BOUNDS pp pp pp
0.0000000000000000e+00 2.1039999999999999e+01
0.0000000000000000e+00 2.1039999999999999e+01
0.0000000000000000e+00 2.1039999999999999e+01
ITEM: ATOMS id type xu yu zu vx vy vz fx fy fz
1 1 0.682663 1.17736 -0.141615 3.0165 5.84807 -0.881441 -0.0389425 -0.0888583 -0.100307
2 1 2.71403 3.33281 0.370933 4.10569 5.23814 -0.613183 -0.114592 -0.288671 -0.42517
3 1 2.44924 0.38163 2.60117 -1.77261 0.0220223 3.4312 0.0842273 0.136219 0.148549
4 1 0.181236 2.70701 2.7947 -2.40167 2.03026 -0.706466 -0.112515 0.0253592 -0.0636246
5 1 0.0503616 0.29736 5.46856 -3.35748 -1.0838 -0.826479 -0.0900546 -0.0615138 -0.0881152
6 1 1.83224 2.88054 5.30634 -7.4232 6.242 2.40276 -0.254622 -0.130548 0.0719605
7 1 2.75283 0.83637 7.53909 3.7286 3.50958 -0.828155 0.260299 -0.217299 -0.0468517
8 1 0.684457 2.58374 8.65114 3.62937 -2.58929 4.69442 -0.214613 0.277358 0.226008
9 1 0.522498 0.336905 11.4667 6.56492 3.06608 4.64457 -0.00198587 -0.0220666 -0.00569135
10 1 2.75733 2.76242 11.4113 2.43562 0.575298 -0.592206 0.227054 -0.0507888 -0.214121
11 1 3.24496 0.180323 14.2495 2.7242 2.77596 7.97613 0.295736 -0.267097 -0.22666
12 1 0.14595 3.12757 13.0135 -1.66451 4.7705 2.85963 -0.26074 -0.0272527 0.0372004
13 1 0.70074 0.199833 15.7043 4.04766 2.49667 -2.24473 -0.252561 0.135404 0.148702
14 1 2.69423 3.06234 14.9321 4.12937 4.2927 -6.44572 -0.0370985 -0.158782 0.719092
15 1 2.90374 1.20075 17.9789 4.91099 4.18724 0.84596 -0.120472 0.112975 0.00088378
16 1 0.0403442 3.08945 17.4329 -3.86521 4.12065 -5.95408 -0.179646 -0.353164 -0.0950046
17 1 0.120654 4.72701 0.286688 -1.07029 -2.59705 3.8646 -0.281704 0.138694 -0.0244506
18 1 2.64952 7.91057 1.39208 -2.04201 -4.74952 5.18955 -0.0791948 -0.0956212 -0.131924
19 1 2.27407 5.28587 3.24302 -0.320899 9.70548 -1.7308 -0.0256166 0.366776 -0.0796004
20 1 -0.0815546 8.64362 2.75482 -1.8185 3.27779 1.65762 -0.170587 0.0764285 0.0767785
21 1 -0.272779 5.70959 5.01966 -6.13033 2.46966 -1.49019 -0.321733 -0.0532049 -0.164065
22 1 2.40801 7.83661 5.73356 5.89134 -1.75693 0.590974 0.307746 0.0337906 -0.0542093
23 1 3.18398 4.80575 8.47676 8.32042 0.642796 2.60519 -0.59988 0.311946 0.111253
24 1 -0.627056 7.74673 7.30494 -8.60746 -0.263521 -0.654209 -0.347436 0.102035 0.172669
25 1 0.843987 5.29615 10.6714 6.48473 2.83517 4.70049 0.0476132 -0.0391542 -0.245775
26 1 3.46067 7.81713 10.3827 1.28933 0.813103 -2.59098 0.023143 -0.0962862 0.220658
27 1 2.78537 5.3056 13.2091 3.12062 2.47182 -5.59111 0.124545 0.315809 -0.544751
28 1 0.749938 7.74986 12.5728 2.15869 -3.69443 -10.0766 0.141696 0.0321266 0.129785
29 1 0.36281 5.26372 15.2518 2.18157 3.84922 -2.23588 -0.167668 0.303725 0.0097392
30 1 2.71854 7.5973 15.1903 6.88706 -6.17992 -0.777894 -0.177721 0.272493 0.280261
31 1 2.2245 4.98776 17.9798 -7.89098 0.376065 -4.81663 0.077595 0.191825 -0.0484667
32 1 0.552894 8.31353 17.5748 2.08515 0.135688 -3.26669 0.148787 -0.1696 0.116028
33 1 0.602047 10.9021 0.624838 3.13463 1.51121 5.70014 -0.0400227 -0.0862102 0.0465157
34 1 2.62023 13.2556 0.808506 0.847163 2.67467 -0.575018 0.212046 0.174613 -0.130375
35 1 2.87007 10.4543 3.25386 4.36303 1.83049 3.2147 -0.498027 -0.177534 -0.456872
36 1 1.18232 13.0758 3.52827 1.72438 -1.81306 6.32294 -0.383591 -0.031042 -0.179179
37 1 1.01023 10.8266 5.59648 5.06845 -1.34825 6.08088 -0.051122 -0.542678 -0.0163931
38 1 3.00931 13.6161 5.84559 5.66272 1.10777 3.11478 -0.0773258 -0.284561 -0.154289
39 1 3.05948 10.3772 8.0834 0.456871 -0.34225 -2.40158 0.212043 0.187683 0.139914
40 1 0.557449 12.9283 7.51042 2.48815 -1.58816 3.67826 -0.198729 0.102022 0.624226
41 1 1.35758 10.0418 10.5751 7.5069 0.793747 -4.79309 -0.0490397 0.421234 0.090087
42 1 3.38568 12.8871 10.7007 1.85898 -4.84911 -0.187279 0.262501 -0.212034 -0.43774
43 1 3.654 10.253 12.9252 11.8185 0.342274 0.352651 -0.450491 0.185193 -0.214002
44 1 1.42911 12.6076 13.0209 7.43324 2.37217 -5.04837 -0.325145 -0.107037 -0.168902
45 1 0.829245 10.5807 15.5642 7.17737 -2.48981 -0.868701 0.0671827 -0.0348131 -0.268994
46 1 2.9549 12.9084 15.6123 3.48994 -2.81614 -4.66158 0.0111702 0.217059 0.05115
47 1 3.71482 10.035 17.1232 8.87745 4.47688 -4.60236 -0.114818 -0.123728 0.20515
48 1 0.32294 14.0908 18.4242 0.143204 3.92232 -0.892314 0.103697 0.0216649 -0.0764968
49 1 0.214398 16.337 0.801839 0.0167419 0.350219 5.48509 -0.175013 -0.232258 0.026555
50 1 2.84163 17.8477 0.73858 4.64624 -3.26918 -0.0970381 0.403279 -0.0114771 -0.239247
51 1 2.56901 15.7697 3.48768 3.05668 -0.0656746 4.66962 -0.0612659 -0.0100144 -0.163545
52 1 0.812238 18.8739 2.75262 3.49213 3.14733 4.05751 -0.460144 0.0460598 -0.0174082
53 1 0.121307 15.3488 5.6086 0.513648 -0.947845 2.59105 -0.121457 -0.0307084 -0.0925974
54 1 2.88024 18.7743 4.79843 1.24567 0.461354 -4.60581 0.341634 0.020783 0.353515
55 1 2.43181 15.4903 8.02469 3.03747 -5.31989 -1.3573 -0.0930312 -0.193609 0.478517
56 1 -0.0678718 17.7741 7.35978 -2.37058 -5.81304 -4.3985 -0.207686 0.0527596 0.0126777
57 1 1.24673 15.4217 10.9877 -1.35967 -6.82378 1.5704 -0.32193 -0.327143 -0.172045
58 1 2.96082 17.9656 10.5048 2.87541 -4.7292 -1.01739 0.0843445 -0.115564 -0.0797071
59 1 3.31291 15.1411 13.1145 1.85218 -6.59359 4.0157 -0.0928675 0.173368 -0.346829
60 1 0.148116 17.7354 12.9978 2.49306 -5.7742 -1.04643 0.00662171 -0.0798541 -0.0844691
61 1 1.30203 15.7896 15.2195 2.93208 -2.91995 -3.94843 -0.156934 -0.11796 0.254765
62 1 3.12781 18.3569 16.288 3.24591 5.95517 -3.63579 -0.115949 0.186438 -0.431627
63 1 3.27047 15.3253 18.0724 8.70675 -1.98409 3.13788 -0.0691411 -0.11524 -0.00110029
64 1 0.648294 17.9076 18.1375 4.677 -5.00366 -1.74458 0.0174795 -0.13001 0.0835635
65 1 5.4947 0.462241 1.45203 5.63885 3.17148 9.41776 0.183165 -0.078124 -0.0892858
66 1 7.75029 3.32069 0.49256 -2.39671 2.29634 2.06667 -0.155525 -0.247373 -0.246732
67 1 8.37839 -0.607547 2.57694 2.75472 -9.28504 -3.43629 0.00729568 -0.104479 0.0351353
68 1 4.42802 3.11178 2.61108 4.32121 5.83683 -0.347074 0.464748 0.0101728 0.580878
69 1 4.84468 1.34156 5.28516 0.797137 4.85592 1.6524 0.0570484 -0.145642 -0.0691366
70 1 7.64048 2.39811 4.25891 -3.77172 2.98551 -3.56944 -0.0154731 0.043176 0.0255185
71 1 8.0927 1.73967 7.76671 4.39851 9.33456 -0.944047 0.201896 -0.0692457 -0.0743076
72 1 5.69179 3.51476 8.05749 0.969338 7.11481 4.77212 0.427621 -0.0391424 0.135337
73 1 5.11459 0.418507 11.7946 2.89564 3.38871 5.95305 0.0478688 -0.0140455 -0.276179
74 1 7.65694 2.50331 10.9868 -5.27411 -1.70837 2.63377 -0.14476 0.212777 0.139404
75 1 7.38741 0.54845 13.8643 -2.18192 2.92312 -1.42086 0.327112 0.0472415 -0.0148982
76 1 5.38947 3.1419 13.3551 6.05071 6.17756 2.0899 0.280538 -0.0844795 -0.358298
77 1 5.45877 1.42719 16.027 0.508071 7.86836 -2.12678 0.163019 -0.274542 -0.150848
78 1 8.4322 3.07205 15.5261 -4.07204 6.54419 -0.157686 -0.351932 -0.0440967 -0.224654
79 1 8.29512 0.0585295 17.1252 0.36182 2.08634 -5.47815 -0.0793377 -0.00167092 0.0106289
80 1 5.0084 3.67201 17.7414 0.887133 6.74911 -1.21365 -0.382598 0.0774394 0.340524
81 1 4.69981 5.49579 0.685301 -4.44261 -3.20105 6.96178 0.351638 0.326386 0.0903812
82 1 7.10565 7.76623 0.917267 1.49464 1.21047 3.92545 0.102499 -0.132926 -0.126389
83 1 8.30071 5.20177 2.67113 0.276301 -0.91923 6.98878 -0.311002 0.0854975 0.649071
84 1 5.16668 8.67624 3.0709 1.02483 6.47753 7.3077 0.155012 -0.162889 0.250071
85 1 4.21318 4.43534 5.55157 -2.90579 3.57798 4.07757 0.444303 0.622747 -0.0246768
86 1 8.58976 8.62905 5.48 1.17566 -0.645602 6.4112 -0.0944359 -0.0756241 0.257584
87 1 7.88852 5.64208 9.7139 4.96521 0.42068 10.6495 0.487432 -0.965039 -0.234612
88 1 5.25338 7.68765 7.92463 -2.76942 1.12856 4.5511 0.0579937 0.0570834 -0.0208347
89 1 5.03525 5.21999 10.8068 -1.07747 -1.96434 6.4056 0.14058 0.00284756 0.337133