ITEM: TIMESTEP
0
ITEM: NUMBER OF ATOMS
1000
ITEM: BOX BOUNDS pp pp pp
-2.0000000000000000e+00 1.5350000000000000e+01
-2.0000000000000000e+00 1.5350000000000000e+01
-2.0000000000000000e+00 1.5350000000000000e+01
ITEM: ATOMS id type xs ys zs
1 1 0.119265 0.120123 0.118011
5 1 0.12442 0.378911 0.371114
11 1 0.370784 0.12894 0.379418
14 1 0.368917 0.379382 0.386534
28 1 0.115487 0.243809 0.260489
37 1 0.365073 0.254331 0.255905
40 1 0.356425 0.489423 0.237366
55 1 0.250312 0.124733 0.247588
56 1 0.232818 0.115693 0.499806
58 1 0.229037 0.365913 0.227656
64 1 0.49264 0.130499 0.246958
67 1 0.490918 0.353142 0.223207
83 1 0.235612 0.250104 0.389859
86 1 0.246707 0.493736 0.359046
92 1 0.497971 0.266179 0.380673
109 1 0.117646 0.116806 0.117808
113 1 0.117621 0.376411 0.369311
119 1 0.370053 0.128779 0.380274
122 1 0.366606 0.37751 0.385546
145 1 0.363242 0.25445 0.256892
148 1 0.355366 0.491505 0.238603
163 1 0.248165 0.119446 0.246604
166 1 0.235383 0.364072 0.227299
172 1 0.494442 0.133096 0.245439
175 1 0.493247 0.355865 0.22747
191 1 0.238972 0.252552 0.38486
194 1 0.246446 0.498415 0.367341
200 1 0.498986 0.264588 0.381652
203 1 0.499784 0.490449 0.342219
227 1 0.369889 0.128091 0.38122
230 1 0.365268 0.37583 0.382951
253 1 0.361619 0.253156 0.256187
256 1 0.357232 0.492466 0.239311
271 1 0.245842 0.115788 0.246783
274 1 0.24047 0.36364 0.229149
280 1 0.494311 0.133741 0.244551
283 1 0.496316 0.359748 0.231712
299 1 0.241648 0.253451 0.380533
302 1 0.246079 0.498841 0.375591
308 1 0.499696 0.261231 0.380843
311 1 0.497656 0.495036 0.34773
335 1 0.370603 0.123094 0.380524
338 1 0.366734 0.373604 0.375723
355 1 0.121981 0.490096 0.247271
361 1 0.364082 0.246608 0.250095
364 1 0.364374 0.493555 0.241534
365 1 0.378815 0.496401 0.499598
382 1 0.243023 0.366682 0.237331
388 1 0.490652 0.128326 0.244175
391 1 0.499807 0.368735 0.238835
407 1 0.241385 0.251096 0.375742
410 1 0.245375 0.491828 0.383725
416 1 0.498495 0.253703 0.375234
419 1 0.495923 0.49753 0.362029
445 1 0.369283 0.370801 0.118766
446 1 0.375143 0.365086 0.369088
460 1 0.121023 0.248755 0.236021
469 1 0.374603 0.239271 0.235666
470 1 0.368371 0.244523 0.498976
487 1 0.240065 0.116268 0.242399
488 1 0.246945 0.116055 0.499058
490 1 0.246537 0.375471 0.249059
497 1 0.49813 0.118268 0.495836
514 1 0.247994 0.246756 0.117192
515 1 0.246683 0.23937 0.366526
524 1 0.498428 0.237854 0.36831
544 1 0.115846 0.360161 0.130544
545 1 0.128689 0.383643 0.360211
553 1 0.385451 0.381096 0.118526
554 1 0.368483 0.382481 0.369915
569 1 0.12598 0.237504 0.496533
577 1 0.374053 0.250511 0.254207
578 1 0.36877 0.228488 0.483252
580 1 0.378334 0.496494 0.243446
598 1 0.243637 0.378889 0.243674
599 1 0.243768 0.381472 0.485505
608 1 0.486992 0.364794 0.498964
622 1 0.240263 0.248538 0.121255
623 1 0.23161 0.242191 0.366896
652 1 0.115501 0.361875 0.127642
653 1 0.117257 0.383298 0.358466
661 1 0.387876 0.381058 0.116382
662 1 0.365685 0.383477 0.366592
677 1 0.128277 0.226669 0.491073
685 1 0.372805 0.259935 0.248297
686 1 0.368111 0.230649 0.484589
706 1 0.247811 0.368579 0.23875
707 1 0.24364 0.375639 0.485764
716 1 0.478104 0.357766 0.490373
730 1 0.249179 0.256115 0.123273
731 1 0.230211 0.241053 0.363059
739 1 0.499895 0.2464 0.126358
740 1 0.498787 0.228744 0.363247
760 1 0.115446 0.365926 0.123181
769 1 0.381855 0.380806 0.117613
770 1 0.364284 0.381784 0.367029
785 1 0.127459 0.226317 0.49261
793 1 0.373058 0.259196 0.244043
794 1 0.365397 0.231477 0.484568
814 1 0.2491 0.367636 0.237524
815 1 0.244063 0.370177 0.484768
824 1 0.476812 0.351984 0.482133
838 1 0.254724 0.256143 0.125017
839 1 0.235979 0.240726 0.358815
847 1 0.499787 0.248619 0.130505
848 1 0.493033 0.22821 0.361389
868 1 0.116968 0.381197 0.116768
874 1 0.370158 0.117988 0.130291
877 1 0.361945 0.384937 0.123212
878 1 0.363889 0.378436 0.363595
892 1 0.116507 0.242646 0.243783
893 1 0.124186 0.232984 0.493189
901 1 0.377718 0.244094 0.240352
902 1 0.358423 0.230543 0.486237
919 1 0.24077 0.118911 0.239405
922 1 0.23941 0.382407 0.24542
923 1 0.241697 0.358416 0.480268
931 1 0.498514 0.385774 0.254057
932 1 0.493789 0.349253 0.478527
946 1 0.252733 0.241784 0.122619
947 1 0.251856 0.238702 0.353564
949 1 0.246822 0.496119 0.117758
956 1 0.491363 0.2298 0.357575
977 1 0.117734 0.355987 0.371478
982 1 0.374158 0.116927 0.118284
985 1 0.368457 0.378072 0.125311
986 1 0.369076 0.377269 0.362238
1000 1 0.122487 0.248127 0.24039
19 1 0.634002 0.11814 0.116332
20 1 0.626218 0.136906 0.36649
22 1 0.632155 0.364882 0.117666
23 1 0.624069 0.375611 0.371511
31 1 0.881796 0.492151 0.236805
46 1 0.63136 0.238674 0.232474
49 1 0.638507 0.497921 0.230181
50 1 0.629178 0.498338 0.49444
65 1 0.514776 0.11952 0.491154
73 1 0.758857 0.125144 0.252031
74 1 0.757164 0.124854 0.494862
76 1 0.750542 0.354316 0.243859
77 1 0.752383 0.371437 0.495122
95 1 0.502278 0.484987 0.338497
100 1 0.760159 0.236314 0.121617
101 1 0.758306 0.250707 0.381941
103 1 0.77836 0.498958 0.119318
104 1 0.754239 0.488716 0.356935
128 1 0.625086 0.136777 0.364429
131 1 0.627465 0.374304 0.367122
136 1 0.880392 0.240393 0.257444
139 1 0.881383 0.49292 0.243661
154 1 0.626239 0.239384 0.236246
157 1 0.633797 0.496052 0.232725
173 1 0.508972 0.119869 0.494867
181 1 0.763055 0.123125 0.251061
182 1 0.7501 0.120171 0.496918
184 1 0.750937 0.362117 0.241612
185 1 0.753549 0.374713 0.497626
208 1 0.757623 0.235464 0.117167
209 1 0.759055 0.252669 0.380045
212 1 0.75549 0.489112 0.362682
221 1 0.881985 0.37397 0.369291
236 1 0.624581 0.13501 0.365913
239 1 0.629865 0.372684 0.363276
244 1 0.878886 0.238706 0.253012
247 1 0.884029 0.491753 0.248155
262 1 0.622312 0.241771 0.239438
265 1 0.630767 0.494269 0.234237
281 1 0.50374 0.119361 0.498447
289 1 0.765153 0.119803 0.250509
292 1 0.753256 0.369226 0.238795
317 1 0.758898 0.252852 0.37726
320 1 0.756256 0.491019 0.368874
329 1 0.879723 0.369552 0.372843
344 1 0.624062 0.127655 0.372523
347 1 0.630872 0.371694 0.361047
352 1 0.883076 0.241424 0.242949
353 1 0.879497 0.240089 0.498953
370 1 0.623419 0.246643 0.241176
371 1 0.622717 0.250619 0.493312
373 1 0.628732 0.493278 0.233842
400 1 0.759942 0.376868 0.232328
424 1 0.760462 0.238162 0.11614
425 1 0.756034 0.249172 0.372173
428 1 0.757642 0.496594 0.37521
434 1 0.879255 0.119382 0.365097
436 1 0.882574 0.377619 0.115598
437 1 0.881718 0.369301 0.374978
454 1 0.627374 0.373586 0.116439
455 1 0.631715 0.376896 0.374366
478 1 0.630276 0.242361 0.242998
499 1 0.500453 0.373788 0.243412
500 1 0.503665 0.359522 0.492707
505 1 0.754531 0.115602 0.239544
508 1 0.762397 0.371645 0.248549
509 1 0.753445 0.366154 0.496924
523 1 0.50108 0.249512 0.124241
533 1 0.752756 0.242545 0.364439
562 1 0.632964 0.378291 0.127337
563 1 0.618063 0.365313 0.379519
568 1 0.868277 0.238714 0.258875
571 1 0.871318 0.497321 0.235915
586 1 0.635909 0.242815 0.251
587 1 0.628882 0.237905 0.490161
590 1 0.636752 0.488321 0.497694
607 1 0.504584 0.379164 0.263211
616 1 0.740909 0.374408 0.255186
617 1 0.765376 0.368673 0.486544
631 1 0.502775 0.24557 0.121835
632 1 0.510229 0.23083 0.364646
634 1 0.510231 0.499509 0.120689
640 1 0.748311 0.25798 0.116332
641 1 0.766217 0.232147 0.38617
670 1 0.621284 0.380181 0.133112
671 1 0.621809 0.362372 0.384619
676 1 0.862487 0.235461 0.256289
679 1 0.874228 0.486037 0.234773
694 1 0.642618 0.234601 0.243927
695 1 0.628898 0.229955 0.491933
715 1 0.502956 0.383151 0.257812
724 1 0.747233 0.381076 0.259873
725 1 0.776867 0.359021 0.490236
748 1 0.757744 0.259825 0.124815
749 1 0.766304 0.236356 0.384355
757 1 0.88051 0.136678 0.116546
761 1 0.880669 0.378573 0.361484
778 1 0.616531 0.379909 0.133907
779 1 0.626508 0.36251 0.386181
784 1 0.864865 0.235421 0.251038
787 1 0.878607 0.4864 0.236453
802 1 0.641341 0.232488 0.242298
803 1 0.627901 0.2212 0.493464
823 1 0.502975 0.384028 0.253777
832 1 0.750258 0.382119 0.262793
833 1 0.781579 0.358879 0.494628
856 1 0.760384 0.258758 0.125783
857 1 0.760915 0.2365 0.380542
869 1 0.884658 0.359105 0.373233
886 1 0.620621 0.373273 0.123429
887 1 0.637846 0.367601 0.390235
910 1 0.625697 0.239182 0.244983
911 1 0.624781 0.218893 0.499535
913 1 0.632271 0.496817 0.253664
940 1 0.752037 0.371764 0.255827
955 1 0.503082 0.248804 0.12676
964 1 0.751636 0.255995 0.121172
965 1 0.74615 0.230435 0.370644
974 1 0.871583 0.116753 0.364586
976 1 0.884577 0.383382 0.122542
995 1 0.639102 0.371561 0.388484
2 1 0.116647 0.877138 0.372926
8 1 0.11567 0.60403 0.389044
16 1 0.364183 0.628402 0.120971
17 1 0.375248 0.610637 0.377545
34 1 0.125881 0.761668 0.241424
43 1 0.359238 0.754344 0.260921
44 1 0.385301 0.755414 0.494347
61 1 0.229324 0.62438 0.257952
62 1 0.243284 0.625544 0.491938
70 1 0.47512 0.637892 0.24438
88 1 0.246856 0.755844 0.126906
89 1 0.252016 0.759892 0.384326
94 1 0.498124 0.500908 0.12678
97 1 0.497604 0.779989 0.123222
98 1 0.488155 0.76548 0.358868
110 1 0.120266 0.874017 0.369271
116 1 0.120724 0.602253 0.384458
124 1 0.364507 0.633852 0.124117
125 1 0.374868 0.613856 0.372874
142 1 0.126016 0.761347 0.242628
151 1 0.361985 0.751886 0.256669
152 1 0.377224 0.751117 0.497091
169 1 0.229964 0.624381 0.256662
170 1 0.25058 0.616462 0.497594
178 1 0.471781 0.633919 0.244839
196 1 0.24794 0.754279 0.1195
197 1 0.250653 0.765165 0.383461
206 1 0.490582 0.763807 0.362335
217 1 0.116624 0.882589 0.117615
218 1 0.12186 0.874246 0.36855
224 1 0.1226 0.604162 0.380287
232 1 0.36492 0.637411 0.12495
233 1 0.373663 0.618113 0.370585
250 1 0.125395 0.760066 0.243816
259 1 0.362781 0.753027 0.251292
260 1 0.370657 0.748678 0.498606
277 1 0.232196 0.625744 0.253549
286 1 0.475903 0.629613 0.244113
305 1 0.248181 0.766199 0.381975
314 1 0.49456 0.762216 0.366904
325 1 0.118371 0.878305 0.116714
326 1 0.119291 0.883188 0.373723
331 1 0.122127 0.636829 0.118486
332 1 0.121062 0.617975 0.376681
340 1 0.366211 0.636021 0.120466
341 1 0.368803 0.627717 0.370072
358 1 0.121988 0.754938 0.246815
367 1 0.36474 0.761215 0.244102
368 1 0.364127 0.74826 0.49843
379 1 0.242994 0.883502 0.247819
385 1 0.240261 0.627763 0.24654
394 1 0.493525 0.625846 0.240921
413 1 0.243749 0.758024 0.377897
418 1 0.495167 0.503267 0.118582
421 1 0.499694 0.764914 0.125696
422 1 0.499364 0.759716 0.373322
443 1 0.367596 0.880225 0.370915
449 1 0.371795 0.625676 0.370233
463 1 0.120399 0.512091 0.247704
472 1 0.375875 0.504877 0.247462
475 1 0.370301 0.758587 0.242871
493 1 0.25166 0.627404 0.238342
518 1 0.242057 0.501423 0.375031
520 1 0.245669 0.754156 0.118695
521 1 0.243879 0.757262 0.366596
527 1 0.499069 0.500889 0.377558
530 1 0.495082 0.753267 0.367077
542 1 0.121746 0.875336 0.368255
550 1 0.377489 0.873877 0.120697
551 1 0.382484 0.875681 0.346352
557 1 0.374468 0.640212 0.386384
572 1 0.125668 0.502955 0.485976
581 1 0.370481 0.501219 0.491493
583 1 0.380761 0.735182 0.236954
595 1 0.241476 0.878944 0.232872
601 1 0.228485 0.634997 0.244796
602 1 0.23741 0.647174 0.488968
605 1 0.494084 0.882371 0.493893
610 1 0.498294 0.6187 0.247042
625 1 0.237536 0.506735 0.124562
626 1 0.243022 0.516284 0.356457
629 1 0.245265 0.76224 0.367976
650 1 0.123589 0.869668 0.373351
656 1 0.116878 0.642222 0.361297
658 1 0.387052 0.87954 0.122305
659 1 0.385222 0.864998 0.342558
665 1 0.376574 0.649764 0.380636
680 1 0.132057 0.509416 0.482227
688 1 0.371889 0.503745 0.247858
689 1 0.365612 0.51277 0.49689
691 1 0.377451 0.735339 0.233304
703 1 0.240518 0.880242 0.240779
704 1 0.241431 0.878922 0.494622
709 1 0.226076 0.639341 0.240186
710 1 0.230547 0.64945 0.48992
733 1 0.226819 0.514078 0.122665
734 1 0.243035 0.513682 0.354046
737 1 0.250471 0.758174 0.363833
758 1 0.118751 0.866208 0.374192
764 1 0.118982 0.638196 0.359482
766 1 0.383672 0.882345 0.126083
767 1 0.382162 0.864992 0.344314
773 1 0.379151 0.646936 0.375842
788 1 0.13177 0.512806 0.484038
796 1 0.368615 0.510475 0.24907
797 1 0.360113 0.519315 0.498353
799 1 0.374945 0.735908 0.228493
811 1 0.241093 0.882896 0.24229
812 1 0.246776 0.877135 0.492692
817 1 0.229536 0.639773 0.234878
818 1 0.230063 0.645753 0.49232
841 1 0.226697 0.512936 0.122606
842 1 0.24373 0.51193 0.355259
844 1 0.240441 0.753395 0.116707
845 1 0.252877 0.757747 0.360424
865 1 0.120206 0.883953 0.122807
872 1 0.118283 0.634045 0.364596
875 1 0.371475 0.876166 0.358496
881 1 0.385742 0.633346 0.365992
895 1 0.115406 0.505583 0.247819
896 1 0.118997 0.508055 0.496292
904 1 0.371945 0.521612 0.245484
905 1 0.356738 0.519043 0.491854
907 1 0.379711 0.744284 0.220421
908 1 0.375432 0.762411 0.498286
920 1 0.253785 0.873738 0.485389
925 1 0.241445 0.632474 0.228542
950 1 0.241176 0.50638 0.367187
952 1 0.240736 0.765677 0.115954
953 1 0.248855 0.752516 0.355382
959 1 0.495592 0.504477 0.38505
980 1 0.116242 0.637486 0.372332
983 1 0.374033 0.876798 0.364574
989 1 0.37995 0.637006 0.3663
25 1 0.623296 0.638286 0.140065
26 1 0.631023 0.625982 0.355079
35 1 0.875557 0.742003 0.496155
52 1 0.632028 0.772891 0.260643
53 1 0.623661 0.749578 0.49059
71 1 0.513609 0.615335 0.496032
79 1 0.778554 0.61959 0.238641
80 1 0.754156 0.621602 0.499433
106 1 0.749401 0.75421 0.137213
107 1 0.778834 0.735028 0.365213
133 1 0.625183 0.642867 0.137714
134 1 0.628194 0.625626 0.35052
143 1 0.873605 0.745959 0.496035
158 1 0.633292 0.502712 0.491574
160 1 0.636199 0.771101 0.262333
161 1 0.625525 0.750893 0.487066
179 1 0.512795 0.612679 0.494151
187 1 0.775162 0.618418 0.246261
188 1 0.755995 0.620671 0.499156
202 1 0.500847 0.502655 0.124835
205 1 0.501924 0.776482 0.122017
214 1 0.755319 0.759939 0.130708
215 1 0.774343 0.740457 0.365623
241 1 0.626097 0.645823 0.135177
242 1 0.625291 0.624839 0.348257
251 1 0.874976 0.750531 0.49672
266 1 0.636558 0.504882 0.489502
268 1 0.638141 0.769537 0.261708
269 1 0.627995 0.752277 0.483302
287 1 0.509816 0.612848 0.491664
290 1 0.746571 0.88363 0.494755
295 1 0.770146 0.619563 0.251881
296 1 0.757249 0.619721 0.496611
310 1 0.500711 0.503643 0.12302
313 1 0.503287 0.771828 0.12235
322 1 0.760413 0.764196 0.124884
323 1 0.767959 0.74628 0.366017
349 1 0.628206 0.644269 0.131435
350 1 0.620767 0.623205 0.351509
359 1 0.883163 0.755978 0.497296
374 1 0.634003 0.503751 0.490156
376 1 0.634616 0.76858 0.252851
377 1 0.630759 0.752654 0.480979
395 1 0.502483 0.618609 0.488817
397 1 0.762045 0.883755 0.249451
398 1 0.748488 0.877089 0.48824
403 1 0.762069 0.623805 0.252665
404 1 0.759457 0.622812 0.49243
430 1 0.764408 0.764427 0.11811
431 1 0.758715 0.755241 0.36941
440 1 0.884312 0.630939 0.372127
451 1 0.627841 0.883171 0.121366
452 1 0.624122 0.877192 0.372316
458 1 0.632508 0.627864 0.3796
466 1 0.88151 0.758335 0.242884
481 1 0.625202 0.502708 0.245449
484 1 0.620932 0.752632 0.240129
496 1 0.504844 0.881796 0.248093
502 1 0.500447 0.628695 0.243612
511 1 0.755032 0.632952 0.241092
535 1 0.756563 0.501478 0.118361
536 1 0.759203 0.503446 0.363685
538 1 0.756141 0.752963 0.115683
539 1 0.752942 0.758211 0.369211
548 1 0.8786 0.644848 0.37085
560 1 0.639461 0.87694 0.367969
566 1 0.622606 0.638625 0.396726
574 1 0.880796 0.756013 0.224699
589 1 0.631206 0.514444 0.263393
592 1 0.627975 0.73426 0.243515
604 1 0.508161 0.862183 0.223992
613 1 0.749613 0.879347 0.238286
619 1 0.763316 0.62106 0.239926
635 1 0.505458 0.50667 0.389181
638 1 0.502654 0.752253 0.37957
644 1 0.75552 0.507636 0.386079
647 1 0.76146 0.753858 0.37887
668 1 0.62971 0.877566 0.363876
674 1 0.626634 0.637181 0.401146
682 1 0.872143 0.761285 0.232534
697 1 0.63642 0.512359 0.257832
700 1 0.630173 0.743998 0.241825
712 1 0.510909 0.85619 0.228066
718 1 0.508619 0.616024 0.251547
721 1 0.750083 0.873252 0.24075
727 1 0.76551 0.619321 0.244132
743 1 0.503754 0.50609 0.390581
746 1 0.505905 0.761861 0.381952
752 1 0.762303 0.511153 0.385876
755 1 0.75253 0.75214 0.373595
776 1 0.624392 0.877971 0.364618
782 1 0.630588 0.635155 0.40124
790 1 0.869313 0.766039 0.236888
805 1 0.638149 0.508779 0.255247
808 1 0.63328 0.745633 0.241494
820 1 0.513334 0.858595 0.235099
826 1 0.512634 0.617859 0.253456
829 1 0.751336 0.871018 0.241763
835 1 0.761244 0.62231 0.248644
851 1 0.501149 0.506467 0.389099
854 1 0.510484 0.763713 0.383385
860 1 0.764002 0.512564 0.384147
863 1 0.74679 0.752685 0.372016
866 1 0.870131 0.872805 0.372292
884 1 0.625197 0.882841 0.374129
890 1 0.629604 0.625224 0.391253
898 1 0.880204 0.759912 0.23994
916 1 0.632064 0.744788 0.238323
928 1 0.512158 0.873036 0.242032
934 1 0.51537 0.630011 0.250937
937 1 0.746748 0.88324 0.240992
943 1 0.749394 0.631237 0.25081
944 1 0.768302 0.632653 0.496487
962 1 0.517103 0.752202 0.39204
968 1 0.75902 0.504808 0.378665
971 1 0.744852 0.758093 0.379932
973 1 0.880722 0.879718 0.124886
979 1 0.880543 0.622519 0.116197
992 1 0.627464 0.879448 0.378686
998 1 0.625287 0.621381 0.378668
10 1 0.360601 0.117097 0.883441
12 1 0.369829 0.116067 0.624079
13 1 0.369221 0.358579 0.867368
15 1 0.381822 0.382073 0.627744
32 1 0.12165 0.488667 0.510388
38 1 0.382188 0.254559 0.5153
39 1 0.374389 0.242557 0.735854
57 1 0.241556 0.125882 0.747541
59 1 0.248296 0.370229 0.510917
60 1 0.241008 0.37033 0.75654
69 1 0.49271 0.367861 0.756516
82 1 0.234703 0.240432 0.878654
84 1 0.238123 0.241692 0.622301
87 1 0.25276 0.499351 0.631398
91 1 0.492239 0.225794 0.867694
112 1 0.11745 0.354736 0.868938
118 1 0.355967 0.116352 0.884264
120 1 0.368125 0.116221 0.622765
121 1 0.371543 0.35927 0.871964
123 1 0.376901 0.380415 0.626873
140 1 0.123297 0.491128 0.511803
146 1 0.383007 0.25329 0.508957
147 1 0.374051 0.244904 0.738996
165 1 0.241342 0.121263 0.747908
167 1 0.243553 0.373046 0.513763
168 1 0.243781 0.374991 0.75541
190 1 0.235346 0.238499 0.881188
192 1 0.236657 0.239427 0.624857
195 1 0.247739 0.494668 0.62745
199 1 0.496004 0.232392 0.86982
220 1 0.121115 0.360893 0.869761
226 1 0.355495 0.116427 0.884441
229 1 0.372342 0.361404 0.877128
231 1 0.373881 0.378531 0.628241
248 1 0.121891 0.493038 0.5118
254 1 0.382063 0.250835 0.50447
255 1 0.373103 0.245864 0.74249
272 1 0.236212 0.115838 0.50288
273 1 0.240753 0.115907 0.748964
275 1 0.239818 0.373931 0.513938
276 1 0.246324 0.377833 0.753537
298 1 0.237672 0.236945 0.882408
300 1 0.236002 0.238947 0.627196
303 1 0.243577 0.493147 0.626901
307 1 0.499602 0.23669 0.871384
328 1 0.121649 0.373939 0.875899
334 1 0.365457 0.117933 0.883813
337 1 0.373103 0.366891 0.883942
339 1 0.373832 0.373618 0.631629
362 1 0.376204 0.247566 0.503438
363 1 0.371426 0.243753 0.749382
366 1 0.370968 0.496956 0.757245
380 1 0.239503 0.120445 0.502817
383 1 0.237269 0.369161 0.507842
384 1 0.247596 0.376193 0.751962
389 1 0.497817 0.116137 0.50323
406 1 0.242091 0.237061 0.881442
408 1 0.236926 0.241702 0.631417
411 1 0.241029 0.496414 0.6323
435 1 0.11679 0.117238 0.628335
444 1 0.376442 0.118586 0.634921
447 1 0.369956 0.370289 0.631378
462 1 0.118616 0.243711 0.757602
471 1 0.374392 0.240568 0.760106
473 1 0.365675 0.498103 0.505934
474 1 0.372389 0.495343 0.75649
491 1 0.243614 0.367595 0.501734
492 1 0.241884 0.367545 0.762278
501 1 0.49579 0.372747 0.759859
516 1 0.245416 0.242046 0.629762
517 1 0.249029 0.499954 0.880603
519 1 0.246725 0.495099 0.626014
525 1 0.490369 0.246499 0.620274
543 1 0.124308 0.12109 0.636424
546 1 0.121931 0.361009 0.61678
555 1 0.362991 0.371074 0.616451
570 1 0.119851 0.255367 0.752268
573 1 0.116185 0.494055 0.75911
579 1 0.374456 0.252468 0.770878
597 1 0.252808 0.126754 0.770645
600 1 0.247581 0.375748 0.7538
606 1 0.494183 0.130565 0.768101
609 1 0.491681 0.379143 0.752598
624 1 0.256316 0.245222 0.624397
633 1 0.498302 0.241098 0.633079
636 1 0.48796 0.478104 0.608018
654 1 0.136987 0.357565 0.614687
663 1 0.360706 0.365403 0.611152
678 1 0.126667 0.257202 0.759709
681 1 0.117152 0.498115 0.766846
687 1 0.364195 0.253409 0.770168
690 1 0.353271 0.499593 0.744347
705 1 0.253857 0.130572 0.771146
708 1 0.24886 0.37596 0.754741
713 1 0.497189 0.116077 0.507355
714 1 0.483921 0.127721 0.766804
717 1 0.484645 0.381045 0.750234
732 1 0.25754 0.243188 0.627833
735 1 0.233392 0.499979 0.616323
741 1 0.486233 0.243344 0.635892
744 1 0.490279 0.477512 0.612076
762 1 0.140697 0.359391 0.614859
771 1 0.359674 0.365413 0.611567
786 1 0.129129 0.256918 0.763768
789 1 0.118922 0.498473 0.767024
795 1 0.362258 0.25415 0.76738
798 1 0.354602 0.491801 0.74491
813 1 0.250386 0.127065 0.771133
816 1 0.247016 0.376737 0.757354
821 1 0.499674 0.11863 0.515557
822 1 0.484247 0.123084 0.761367
825 1 0.483245 0.378824 0.748381
840 1 0.255047 0.237838 0.628925
843 1 0.235872 0.494447 0.612404
849 1 0.48026 0.243939 0.635986
852 1 0.493102 0.479081 0.616128
870 1 0.129816 0.363842 0.625699
879 1 0.35929 0.371355 0.614379
894 1 0.134053 0.249232 0.771419
897 1 0.122222 0.494662 0.751501
903 1 0.367746 0.2483 0.758724
906 1 0.370867 0.491327 0.746625
924 1 0.238573 0.375806 0.765235
929 1 0.497515 0.116854 0.522852
933 1 0.493367 0.366418 0.75181
948 1 0.244079 0.230492 0.627559
951 1 0.242745 0.493911 0.619253
957 1 0.47967 0.248286 0.628717
960 1 0.493247 0.487114 0.617659
978 1 0.122874 0.360392 0.631626
987 1 0.361037 0.371107 0.614264
4 1 0.879895 0.350472 0.87035
6 1 0.878542 0.372929 0.637633
24 1 0.638868 0.382047 0.631442
29 1 0.875584 0.253124 0.509942
30 1 0.868174 0.235407 0.737862
47 1 0.633918 0.258167 0.509321
48 1 0.656835 0.24956 0.758316
68 1 0.506792 0.385352 0.508016
78 1 0.758959 0.398782 0.754775
93 1 0.514984 0.233349 0.628084
102 1 0.750893 0.238753 0.617875
114 1 0.878882 0.369184 0.635833
127 1 0.632802 0.118257 0.880838
130 1 0.632016 0.362385 0.883623
132 1 0.634337 0.379351 0.630741
137 1 0.87361 0.250671 0.508837
138 1 0.869255 0.234582 0.746438
155 1 0.62882 0.257463 0.506119
156 1 0.657506 0.247534 0.75778
176 1 0.504881 0.383195 0.509187
177 1 0.500039 0.36523 0.75979
186 1 0.759552 0.392406 0.755409
201 1 0.517775 0.233559 0.628468
210 1 0.749302 0.240019 0.620277
222 1 0.879317 0.367012 0.634187
235 1 0.631548 0.117668 0.876638
238 1 0.63136 0.362054 0.88006
240 1 0.629747 0.377912 0.631476
245 1 0.874754 0.247491 0.505994
246 1 0.871133 0.234599 0.754192
263 1 0.62405 0.255298 0.500915
264 1 0.654056 0.244251 0.755902
284 1 0.503551 0.382382 0.509841
285 1 0.507648 0.364911 0.760749
293 1 0.755581 0.379545 0.501127
294 1 0.758377 0.384901 0.75615
309 1 0.519194 0.234983 0.630615
316 1 0.757759 0.235382 0.883741
318 1 0.749364 0.242383 0.623772
330 1 0.880209 0.366258 0.633713
343 1 0.628006 0.115993 0.875681
346 1 0.631439 0.364788 0.878814
348 1 0.625737 0.377348 0.632171
354 1 0.878614 0.236557 0.761806
356 1 0.88315 0.496261 0.507313
372 1 0.638847 0.237097 0.752169
392 1 0.502706 0.383168 0.508138
393 1 0.512962 0.367506 0.758075
401 1 0.757625 0.382701 0.508116
402 1 0.755861 0.371744 0.756989
415 1 0.502946 0.238318 0.873829
417 1 0.515088 0.241103 0.634828
426 1 0.753427 0.245658 0.62584
433 1 0.882582 0.115891 0.883501
438 1 0.884595 0.37702 0.629969
453 1 0.623309 0.115792 0.619922
456 1 0.633115 0.369875 0.63156
461 1 0.88222 0.248429 0.504175
465 1 0.88344 0.496564 0.756133
479 1 0.631207 0.23972 0.503105
480 1 0.61743 0.243437 0.755692
506 1 0.757211 0.117855 0.506004
507 1 0.757877 0.121837 0.754091
510 1 0.755181 0.362659 0.759381
526 1 0.504214 0.497714 0.883446
528 1 0.5034 0.497478 0.624148
532 1 0.755867 0.240972 0.883485
534 1 0.753591 0.237895 0.628222
541 1 0.880339 0.134457 0.882694
559 1 0.628547 0.119887 0.879642
561 1 0.629343 0.13056 0.650101
564 1 0.61589 0.355002 0.60738
588 1 0.628002 0.258734 0.769128
591 1 0.624424 0.473296 0.737863
614 1 0.764795 0.120793 0.505109
615 1 0.752374 0.115681 0.760411
618 1 0.763198 0.385097 0.751508
642 1 0.760471 0.253854 0.638523
643 1 0.758905 0.493283 0.884696
645 1 0.764355 0.483131 0.614657
649 1 0.878868 0.139465 0.884208
651 1 0.881385 0.137582 0.639628
667 1 0.627101 0.121422 0.877081
669 1 0.632379 0.128676 0.650893
672 1 0.621059 0.354406 0.593458
696 1 0.63289 0.269188 0.767421
698 1 0.628356 0.491539 0.506042
699 1 0.62312 0.484513 0.734399
722 1 0.761838 0.118388 0.51738
723 1 0.761841 0.129051 0.762066
726 1 0.771994 0.376331 0.751613
742 1 0.505108 0.493873 0.883266
750 1 0.760095 0.254001 0.624677
751 1 0.750834 0.499724 0.882591
753 1 0.763852 0.489656 0.620779
759 1 0.878965 0.143517 0.64124
775 1 0.627658 0.121249 0.873582
777 1 0.630822 0.12838 0.648622
780 1 0.62583 0.356219 0.594416
804 1 0.633338 0.274402 0.763197
806 1 0.625919 0.496449 0.510406
807 1 0.624939 0.490623 0.733112
830 1 0.759266 0.115719 0.52129
831 1 0.766768 0.137004 0.764484
834 1 0.773522 0.369513 0.752882
850 1 0.502918 0.494947 0.878634
858 1 0.75818 0.254184 0.618449
859 1 0.74623 0.497917 0.880683
861 1 0.765833 0.49114 0.623524
867 1 0.883563 0.134609 0.642536
883 1 0.627132 0.117789 0.861732
885 1 0.625804 0.128728 0.650425
888 1 0.62819 0.364241 0.607821
912 1 0.623879 0.27435 0.749996
915 1 0.631728 0.490748 0.739444
938 1 0.764188 0.116638 0.512403
939 1 0.763675 0.147618 0.765724
941 1 0.778704 0.377386 0.50254
942 1 0.770068 0.361758 0.751675
966 1 0.753418 0.251489 0.619061
967 1 0.746304 0.482345 0.878023
969 1 0.776373 0.484144 0.624489
975 1 0.882062 0.118291 0.639765
991 1 0.624937 0.116218 0.865893
993 1 0.628124 0.124487 0.648997
994 1 0.622068 0.372866 0.884411
996 1 0.622897 0.372979 0.613062
9 1 0.117779 0.626113 0.626343
18 1 0.362198 0.633169 0.618266
33 1 0.122516 0.504579 0.755436
36 1 0.120055 0.754282 0.757326
41 1 0.376082 0.502239 0.507182
42 1 0.373764 0.518421 0.759767
45 1 0.36125 0.758524 0.749703
63 1 0.244441 0.632095 0.765613
66 1 0.492983 0.873857 0.745532
72 1 0.491518 0.631261 0.764338
85 1 0.239318 0.504243 0.883458
90 1 0.237005 0.744747 0.614464
117 1 0.121582 0.623848 0.625476
126 1 0.369194 0.632201 0.6198
141 1 0.116422 0.507505 0.754093
144 1 0.121552 0.754354 0.755928
149 1 0.373846 0.502037 0.503705
150 1 0.3711 0.513765 0.757538
153 1 0.363694 0.756556 0.755301
164 1 0.234339 0.884616 0.501148
171 1 0.246034 0.632021 0.762355
174 1 0.494055 0.871325 0.739819
180 1 0.492823 0.633049 0.765672
193 1 0.244421 0.502938 0.88456
198 1 0.235201 0.751915 0.616726
207 1 0.497418 0.752453 0.617122
223 1 0.118713 0.640148 0.88424
225 1 0.124174 0.622266 0.625461
228 1 0.36687 0.884523 0.620094
234 1 0.375712 0.63077 0.623329
252 1 0.124158 0.75277 0.754529
257 1 0.373715 0.501073 0.50082
258 1 0.369359 0.507252 0.756192
261 1 0.366399 0.755443 0.759135
278 1 0.25477 0.611615 0.50198
279 1 0.246639 0.631198 0.757667
282 1 0.495417 0.87206 0.737117
288 1 0.494735 0.636188 0.767403
301 1 0.246479 0.501379 0.88447
304 1 0.247168 0.754194 0.882805
306 1 0.235348 0.758577 0.61943
315 1 0.493523 0.753539 0.617531
333 1 0.123304 0.625687 0.624767
336 1 0.366809 0.882603 0.617431
342 1 0.382947 0.625764 0.632217
360 1 0.122103 0.750112 0.751937
369 1 0.372142 0.756479 0.759938
381 1 0.241068 0.878801 0.752519
386 1 0.252847 0.616506 0.507435
387 1 0.24809 0.627082 0.748681
390 1 0.498237 0.878172 0.741908
396 1 0.498398 0.638988 0.76979
409 1 0.243746 0.500414 0.882007
412 1 0.242564 0.758072 0.877871
414 1 0.241177 0.762181 0.623874
423 1 0.494346 0.754089 0.617919
442 1 0.375114 0.882938 0.882988
448 1 0.373846 0.625005 0.877699
450 1 0.376234 0.623058 0.632633
467 1 0.122871 0.764323 0.502536
476 1 0.373333 0.76138 0.501258
477 1 0.376515 0.75714 0.752393
489 1 0.244927 0.884076 0.755765
494 1 0.241462 0.629014 0.502481
495 1 0.243619 0.630509 0.757171
503 1 0.490271 0.635076 0.501844
522 1 0.250749 0.751857 0.632144
529 1 0.495934 0.751298 0.880541
549 1 0.125019 0.632892 0.631419
552 1 0.371167 0.881266 0.638738
556 1 0.385027 0.612632 0.878827
558 1 0.344812 0.637349 0.616439
576 1 0.1191 0.764516 0.7642
582 1 0.3601 0.511555 0.743291
584 1 0.374503 0.761741 0.508397
585 1 0.358992 0.743669 0.76406
596 1 0.239777 0.878906 0.500357
603 1 0.231411 0.621279 0.762236
612 1 0.491354 0.602473 0.721386
627 1 0.228904 0.509625 0.626012
628 1 0.243259 0.749451 0.879399
630 1 0.234087 0.761908 0.630603
639 1 0.497038 0.764898 0.645099
660 1 0.360941 0.880538 0.636689
664 1 0.377411 0.608263 0.881669
666 1 0.344071 0.634579 0.615076
692 1 0.373976 0.760187 0.504622
693 1 0.363636 0.743243 0.758571
711 1 0.240029 0.617845 0.759567
720 1 0.493542 0.604988 0.720765
736 1 0.241146 0.750584 0.883496
738 1 0.231805 0.77222 0.632413
747 1 0.492384 0.768057 0.642813
768 1 0.358018 0.881623 0.634255
772 1 0.372802 0.609509 0.882017
774 1 0.347997 0.632106 0.618517
800 1 0.373974 0.762311 0.502902
801 1 0.368623 0.744304 0.755766
819 1 0.242351 0.621755 0.757038
828 1 0.495416 0.610829 0.725532
846 1 0.230776 0.776945 0.63537
855 1 0.49114 0.768635 0.64075
873 1 0.128889 0.622196 0.634388
876 1 0.366498 0.882857 0.629545
880 1 0.365354 0.620439 0.87026
882 1 0.363338 0.631069 0.635737
899 1 0.118328 0.772552 0.506947
909 1 0.373479 0.755491 0.75776
921 1 0.240689 0.879904 0.771503
926 1 0.240528 0.641957 0.50155
927 1 0.242461 0.637095 0.754162
930 1 0.493277 0.884042 0.755132
935 1 0.489079 0.643768 0.51495
936 1 0.498449 0.62635 0.74547
954 1 0.226781 0.77395 0.643827
958 1 0.494753 0.507465 0.868663
961 1 0.499172 0.737705 0.869191
963 1 0.498564 0.762622 0.631777
981 1 0.126613 0.622183 0.626646
984 1 0.370283 0.880822 0.6317
988 1 0.366358 0.628719 0.863964
990 1 0.370197 0.632696 0.638404
3 1 0.872847 0.880046 0.62184
7 1 0.880173 0.63291 0.880008
21 1 0.650456 0.868157 0.621391
27 1 0.638604 0.629162 0.630694
51 1 0.622005 0.512236 0.776148
54 1 0.612556 0.760884 0.758312
75 1 0.772708 0.854171 0.756335
81 1 0.743857 0.637141 0.764716
96 1 0.507486 0.517601 0.635487
99 1 0.50421 0.750494 0.617238
105 1 0.752474 0.515107 0.630973
108 1 0.756218 0.733078 0.625695
111 1 0.876625 0.879377 0.626107
115 1 0.884061 0.637345 0.882182
129 1 0.649242 0.872459 0.61988
135 1 0.635057 0.63055 0.630129
159 1 0.619957 0.506927 0.774439
162 1 0.614474 0.758314 0.761404
183 1 0.771822 0.86063 0.757682
189 1 0.743915 0.634621 0.765869
204 1 0.50892 0.514455 0.642145
211 1 0.777956 0.501685 0.883896
213 1 0.751104 0.514191 0.630851
216 1 0.757615 0.740253 0.622914
219 1 0.880122 0.878342 0.627725
237 1 0.643805 0.875722 0.621887
243 1 0.628274 0.632497 0.629647
249 1 0.882466 0.51011 0.752636
267 1 0.620249 0.502495 0.772652
270 1 0.618977 0.755309 0.762943