ITEM: TIMESTEP
0
ITEM: NUMBER OF ATOMS
256
ITEM: BOX BOUNDS pp pp pp
0.0000000000000000e+00 2.1039999999999999e+01
0.0000000000000000e+00 2.1039999999999999e+01
0.0000000000000000e+00 2.1039999999999999e+01
ITEM: ATOMS id type xs ys zs
1 1 0 0 0
2 1 0.125 0.125 0
3 1 0.125 0 0.125
4 1 0 0.125 0.125
5 1 0 0 0.25
6 1 0.125 0.125 0.25
17 1 0 0.25 0
19 1 0.125 0.25 0.125
21 1 0 0.25 0.25
65 1 0.25 0 0
68 1 0.25 0.125 0.125
69 1 0.25 0 0.25
81 1 0.25 0.25 0
85 1 0.25 0.25 0.25
66 1 0.375 0.125 0
67 1 0.375 0 0.125
70 1 0.375 0.125 0.25
83 1 0.375 0.25 0.125
129 1 0.5 0 0
130 1 0.625 0.125 0
131 1 0.625 0 0.125
132 1 0.5 0.125 0.125
133 1 0.5 0 0.25
134 1 0.625 0.125 0.25
145 1 0.5 0.25 0
147 1 0.625 0.25 0.125
149 1 0.5 0.25 0.25
193 1 0.75 0 0
194 1 0.875 0.125 0
195 1 0.875 0 0.125
196 1 0.75 0.125 0.125
197 1 0.75 0 0.25
198 1 0.875 0.125 0.25
209 1 0.75 0.25 0
211 1 0.875 0.25 0.125
213 1 0.75 0.25 0.25
18 1 0.125 0.375 0
20 1 0 0.375 0.125
22 1 0.125 0.375 0.25
33 1 0 0.5 0
34 1 0.125 0.625 0
35 1 0.125 0.5 0.125
36 1 0 0.625 0.125
37 1 0 0.5 0.25
38 1 0.125 0.625 0.25
84 1 0.25 0.375 0.125
97 1 0.25 0.5 0
100 1 0.25 0.625 0.125
101 1 0.25 0.5 0.25
82 1 0.375 0.375 0
86 1 0.375 0.375 0.25
98 1 0.375 0.625 0
99 1 0.375 0.5 0.125
102 1 0.375 0.625 0.25
146 1 0.625 0.375 0
148 1 0.5 0.375 0.125
150 1 0.625 0.375 0.25
161 1 0.5 0.5 0
162 1 0.625 0.625 0
163 1 0.625 0.5 0.125
164 1 0.5 0.625 0.125
165 1 0.5 0.5 0.25
166 1 0.625 0.625 0.25
210 1 0.875 0.375 0
212 1 0.75 0.375 0.125
214 1 0.875 0.375 0.25
225 1 0.75 0.5 0
226 1 0.875 0.625 0
227 1 0.875 0.5 0.125
228 1 0.75 0.625 0.125
229 1 0.75 0.5 0.25
230 1 0.875 0.625 0.25
49 1 0 0.75 0
50 1 0.125 0.875 0
51 1 0.125 0.75 0.125
52 1 0 0.875 0.125
53 1 0 0.75 0.25
54 1 0.125 0.875 0.25
113 1 0.25 0.75 0
116 1 0.25 0.875 0.125
117 1 0.25 0.75 0.25
114 1 0.375 0.875 0
115 1 0.375 0.75 0.125
118 1 0.375 0.875 0.25
177 1 0.5 0.75 0
178 1 0.625 0.875 0
179 1 0.625 0.75 0.125
180 1 0.5 0.875 0.125
181 1 0.5 0.75 0.25
182 1 0.625 0.875 0.25
241 1 0.75 0.75 0
242 1 0.875 0.875 0
243 1 0.875 0.75 0.125
244 1 0.75 0.875 0.125
245 1 0.75 0.75 0.25
246 1 0.875 0.875 0.25
7 1 0.125 0 0.375
8 1 0 0.125 0.375
9 1 0 0 0.5
10 1 0.125 0.125 0.5
11 1 0.125 0 0.625
12 1 0 0.125 0.625
23 1 0.125 0.25 0.375
25 1 0 0.25 0.5
27 1 0.125 0.25 0.625
72 1 0.25 0.125 0.375
73 1 0.25 0 0.5
76 1 0.25 0.125 0.625
89 1 0.25 0.25 0.5
71 1 0.375 0 0.375
74 1 0.375 0.125 0.5
75 1 0.375 0 0.625
87 1 0.375 0.25 0.375
91 1 0.375 0.25 0.625
135 1 0.625 0 0.375
136 1 0.5 0.125 0.375
137 1 0.5 0 0.5
138 1 0.625 0.125 0.5
139 1 0.625 0 0.625
140 1 0.5 0.125 0.625
151 1 0.625 0.25 0.375
153 1 0.5 0.25 0.5
155 1 0.625 0.25 0.625
199 1 0.875 0 0.375
200 1 0.75 0.125 0.375
201 1 0.75 0 0.5
202 1 0.875 0.125 0.5
203 1 0.875 0 0.625
204 1 0.75 0.125 0.625
215 1 0.875 0.25 0.375
217 1 0.75 0.25 0.5
219 1 0.875 0.25 0.625
24 1 0 0.375 0.375
26 1 0.125 0.375 0.5
28 1 0 0.375 0.625
39 1 0.125 0.5 0.375
40 1 0 0.625 0.375
41 1 0 0.5 0.5
42 1 0.125 0.625 0.5
43 1 0.125 0.5 0.625
44 1 0 0.625 0.625
88 1 0.25 0.375 0.375
92 1 0.25 0.375 0.625
104 1 0.25 0.625 0.375
105 1 0.25 0.5 0.5
108 1 0.25 0.625 0.625
90 1 0.375 0.375 0.5
103 1 0.375 0.5 0.375
106 1 0.375 0.625 0.5
107 1 0.375 0.5 0.625
152 1 0.5 0.375 0.375
154 1 0.625 0.375 0.5
156 1 0.5 0.375 0.625
167 1 0.625 0.5 0.375
168 1 0.5 0.625 0.375
169 1 0.5 0.5 0.5
170 1 0.625 0.625 0.5
171 1 0.625 0.5 0.625
172 1 0.5 0.625 0.625
216 1 0.75 0.375 0.375
218 1 0.875 0.375 0.5
220 1 0.75 0.375 0.625
231 1 0.875 0.5 0.375
232 1 0.75 0.625 0.375
233 1 0.75 0.5 0.5
234 1 0.875 0.625 0.5
235 1 0.875 0.5 0.625
236 1 0.75 0.625 0.625
55 1 0.125 0.75 0.375
56 1 0 0.875 0.375
57 1 0 0.75 0.5
58 1 0.125 0.875 0.5
59 1 0.125 0.75 0.625
60 1 0 0.875 0.625
120 1 0.25 0.875 0.375
121 1 0.25 0.75 0.5
124 1 0.25 0.875 0.625
119 1 0.375 0.75 0.375
122 1 0.375 0.875 0.5
123 1 0.375 0.75 0.625
183 1 0.625 0.75 0.375
184 1 0.5 0.875 0.375
185 1 0.5 0.75 0.5
186 1 0.625 0.875 0.5
187 1 0.625 0.75 0.625
188 1 0.5 0.875 0.625
247 1 0.875 0.75 0.375
248 1 0.75 0.875 0.375
249 1 0.75 0.75 0.5
250 1 0.875 0.875 0.5
251 1 0.875 0.75 0.625
252 1 0.75 0.875 0.625
13 1 0 0 0.75
14 1 0.125 0.125 0.75
15 1 0.125 0 0.875
16 1 0 0.125 0.875
29 1 0 0.25 0.75
31 1 0.125 0.25 0.875
77 1 0.25 0 0.75
80 1 0.25 0.125 0.875
93 1 0.25 0.25 0.75
78 1 0.375 0.125 0.75
79 1 0.375 0 0.875
95 1 0.375 0.25 0.875
141 1 0.5 0 0.75
142 1 0.625 0.125 0.75
143 1 0.625 0 0.875
144 1 0.5 0.125 0.875
157 1 0.5 0.25 0.75
159 1 0.625 0.25 0.875
205 1 0.75 0 0.75
206 1 0.875 0.125 0.75
207 1 0.875 0 0.875
208 1 0.75 0.125 0.875
221 1 0.75 0.25 0.75
223 1 0.875 0.25 0.875
30 1 0.125 0.375 0.75
32 1 0 0.375 0.875
45 1 0 0.5 0.75
46 1 0.125 0.625 0.75
47 1 0.125 0.5 0.875
48 1 0 0.625 0.875
96 1 0.25 0.375 0.875
109 1 0.25 0.5 0.75
112 1 0.25 0.625 0.875
94 1 0.375 0.375 0.75
110 1 0.375 0.625 0.75
111 1 0.375 0.5 0.875
158 1 0.625 0.375 0.75
160 1 0.5 0.375 0.875
173 1 0.5 0.5 0.75
174 1 0.625 0.625 0.75
175 1 0.625 0.5 0.875
176 1 0.5 0.625 0.875
222 1 0.875 0.375 0.75
224 1 0.75 0.375 0.875
237 1 0.75 0.5 0.75
238 1 0.875 0.625 0.75
239 1 0.875 0.5 0.875
240 1 0.75 0.625 0.875
61 1 0 0.75 0.75
62 1 0.125 0.875 0.75
63 1 0.125 0.75 0.875
64 1 0 0.875 0.875
125 1 0.25 0.75 0.75
128 1 0.25 0.875 0.875
126 1 0.375 0.875 0.75
127 1 0.375 0.75 0.875
189 1 0.5 0.75 0.75
190 1 0.625 0.875 0.75
191 1 0.625 0.75 0.875
192 1 0.5 0.875 0.875
253 1 0.75 0.75 0.75
254 1 0.875 0.875 0.75
255 1 0.875 0.75 0.875
256 1 0.75 0.875 0.875
ITEM: TIMESTEP
100
ITEM: NUMBER OF ATOMS
256
ITEM: BOX BOUNDS pp pp pp
0.0000000000000000e+00 2.1039999999999999e+01
0.0000000000000000e+00 2.1039999999999999e+01
0.0000000000000000e+00 2.1039999999999999e+01
ITEM: ATOMS id type xs ys zs
1 1 0.00255259 0.00624697 -0.00475745
2 1 0.122877 0.129113 -0.00266833
3 1 0.124091 -9.47854e-06 0.121535
4 1 -0.00200886 0.123242 0.126871
5 1 -0.000493595 0.00138147 0.25437
6 1 0.118233 0.119151 0.250608
17 1 -0.002881 0.247222 -0.00319995
19 1 0.118022 0.247248 0.132599
21 1 -0.00384037 0.253022 0.24749
65 1 0.249727 -0.0012125 0.00430568
68 1 0.240198 0.125897 0.126569
69 1 0.244764 0.00749176 0.247336
81 1 0.247077 0.256661 3.2833e-05
85 1 0.244319 0.241081 0.25111
66 1 0.373016 0.129156 -0.00155082
67 1 0.378245 -0.00300677 0.128295
70 1 0.376426 0.119751 0.240577
83 1 0.377616 0.251137 0.124425
129 1 0.501143 -0.000335779 -0.00244525
130 1 0.614331 0.129522 -0.00659744
131 1 0.617279 -0.00507117 0.123554
132 1 0.497776 0.116548 0.121862
133 1 0.503415 -0.00264065 0.251948
134 1 0.63447 0.125103 0.241353
145 1 0.500988 0.249725 -0.00132306
147 1 0.619749 0.250306 0.122966
149 1 0.508018 0.253676 0.249093
193 1 0.751191 0.00308849 0.00242145
194 1 0.881296 0.120321 -0.000610938
195 1 0.874029 -0.00660822 0.131097
196 1 0.7479 0.128885 0.126849
197 1 0.748122 0.000124426 0.254813
198 1 0.874328 0.130579 0.248852
209 1 0.75045 0.242717 0.00281339
211 1 0.879136 0.248433 0.131107
213 1 0.747309 0.246886 0.251688
18 1 0.125467 0.377343 0.00718074
20 1 -0.00522648 0.383013 0.125462
22 1 0.117808 0.375877 0.256713
33 1 0.00213983 0.503783 -0.00127354
34 1 0.126806 0.624817 0.00425419
35 1 0.120771 0.495741 0.127369
36 1 0.00521827 0.625268 0.129327
37 1 0.0030586 0.501121 0.249469
38 1 0.126575 0.628503 0.255356
84 1 0.247719 0.378275 0.128546
97 1 0.248731 0.496935 -0.00558354
100 1 0.242507 0.621685 0.121373
101 1 0.24493 0.504318 0.252205
82 1 0.366461 0.37322 0.00165323
86 1 0.38113 0.38333 0.248087
98 1 0.375024 0.617509 0.00919472
99 1 0.37593 0.493979 0.127688
102 1 0.370066 0.622374 0.243777
146 1 0.626567 0.371072 0.00666005
148 1 0.503838 0.375046 0.125489
150 1 0.623881 0.378489 0.255945
161 1 0.507456 0.50278 0.00078112
162 1 0.627808 0.6327 0.00395483
163 1 0.625638 0.498961 0.125049
164 1 0.514569 0.624339 0.130757
165 1 0.502399 0.501812 0.252627
166 1 0.625663 0.624007 0.240822
210 1 0.879958 0.379966 -0.0035441
212 1 0.747489 0.3691 0.11797
214 1 0.868096 0.368509 0.250606
225 1 0.744943 0.496088 0.000878064
226 1 0.875562 0.626798 -0.00561697
227 1 0.873112 0.49802 0.121626
228 1 0.746744 0.615608 0.119329
229 1 0.756997 0.4983 0.249474
230 1 0.879705 0.628761 0.255411
49 1 -0.00249675 0.754801 0.00179606
50 1 0.126818 0.874361 0.0035373
51 1 0.120574 0.752211 0.129707
52 1 0.000716112 0.882666 0.124282
53 1 -0.00398964 0.747285 0.250887
54 1 0.128178 0.883495 0.250617
113 1 0.249769 0.754887 -0.00367354
116 1 0.247965 0.870099 0.119672
117 1 0.249539 0.748804 0.249559
114 1 0.381914 0.877313 0.00204129
115 1 0.374487 0.754607 0.120019
118 1 0.373821 0.875745 0.251721
177 1 0.497797 0.74549 0.00193854
178 1 0.623499 0.87203 0.00262796
179 1 0.627128 0.747625 0.124901
180 1 0.495723 0.873784 0.117573
181 1 0.504817 0.754486 0.24818
182 1 0.626889 0.872936 0.24992
241 1 0.743812 0.755447 0.000761033
242 1 0.870197 0.872288 0.0035945
243 1 0.875243 0.747456 0.129742
244 1 0.747893 0.863333 0.123156
245 1 0.751788 0.749956 0.245707
246 1 0.875352 0.877783 0.254669
7 1 0.124199 0.00352318 0.372509
8 1 -0.00123689 0.128036 0.382816
9 1 -0.00190686 -0.00201139 0.507628
10 1 0.1265 0.124593 0.511098
11 1 0.130798 -0.00712566 0.631198
12 1 -0.00348573 0.125712 0.620571
23 1 0.121464 0.243867 0.379198
25 1 0.000287759 0.249207 0.497434
27 1 0.124132 0.250415 0.628407
72 1 0.255586 0.13028 0.373931
73 1 0.246996 -0.00245039 0.507993
76 1 0.246907 0.126159 0.624443
89 1 0.24846 0.250684 0.499312
71 1 0.373727 0.00749352 0.37356
74 1 0.376695 0.124915 0.505376
75 1 0.371522 0.000328929 0.635346
87 1 0.374884 0.249043 0.383777
91 1 0.38135 0.243769 0.620729
135 1 0.628879 -0.001214 0.379807
136 1 0.503027 0.121848 0.370486
137 1 0.496807 -0.00243916 0.50124
138 1 0.627334 0.12641 0.501251
139 1 0.625075 -0.00327433 0.626949
140 1 0.500205 0.118993 0.627452
151 1 0.629522 0.25155 0.377449
153 1 0.50532 0.252515 0.506806
155 1 0.62236 0.254825 0.621509
199 1 0.878451 -0.00163341 0.374952
200 1 0.751421 0.128153 0.374829
201 1 0.752504 0.00437276 0.49792
202 1 0.870921 0.130883 0.502264
203 1 0.884542 -0.000271355 0.624552
204 1 0.749863 0.125826 0.636189
215 1 0.874087 0.253114 0.371905
217 1 0.754308 0.246717 0.506178
219 1 0.870779 0.24949 0.623905
24 1 -0.00546076 0.374695 0.370324
26 1 0.134334 0.37235 0.500483
28 1 0.00389018 0.375784 0.626987
39 1 0.132677 0.499672 0.382301
40 1 -0.000455511 0.622984 0.372162
41 1 0.00460251 0.495993 0.503894
42 1 0.134471 0.621874 0.498127
43 1 0.124734 0.498229 0.620988
44 1 0.00557741 0.616605 0.625823
88 1 0.252884 0.369924 0.369514
92 1 0.242048 0.372206 0.624881
104 1 0.249617 0.623014 0.376531
105 1 0.246689 0.502667 0.493599
108 1 0.251637 0.626998 0.627835
90 1 0.3699 0.380976 0.506631
103 1 0.379188 0.493275 0.375324
106 1 0.369422 0.620871 0.496401
107 1 0.370604 0.49245 0.625056
152 1 0.494119 0.375851 0.373064
154 1 0.626681 0.372782 0.500916
156 1 0.507542 0.369806 0.622123
167 1 0.620095 0.502023 0.371489
168 1 0.495492 0.620762 0.37513
169 1 0.505171 0.492137 0.502603
170 1 0.622441 0.627548 0.493895
171 1 0.621113 0.50081 0.623513
172 1 0.488481 0.621907 0.624477
216 1 0.749754 0.37225 0.375092
218 1 0.883166 0.375076 0.498731
220 1 0.754354 0.375294 0.621273
231 1 0.877411 0.502452 0.369119
232 1 0.751785 0.629768 0.376542
233 1 0.748047 0.499392 0.496675
234 1 0.874632 0.629315 0.501078
235 1 0.874068 0.49914 0.61776
236 1 0.759816 0.624468 0.624702
55 1 0.119344 0.75173 0.379087
56 1 -0.00333719 0.875596 0.372654
57 1 0.00892915 0.749008 0.503944
58 1 0.127523 0.879507 0.499552
59 1 0.130673 0.750059 0.619984
60 1 -0.00278085 0.874085 0.623751
120 1 0.244916 0.875737 0.370088
121 1 0.250111 0.746439 0.500237
124 1 0.243774 0.873984 0.623105
119 1 0.375453 0.746532 0.372053
122 1 0.374208 0.880516 0.498575
123 1 0.381827 0.745328 0.620951
183 1 0.620865 0.74745 0.37635
184 1 0.5064 0.879457 0.377704
185 1 0.50173 0.7489 0.504354
186 1 0.623282 0.872015 0.498501
187 1 0.622441 0.754967 0.629877
188 1 0.504347 0.874206 0.630049
247 1 0.876324 0.743937 0.3741
248 1 0.745646 0.877311 0.36955
249 1 0.75177 0.754711 0.492335
250 1 0.880831 0.874237 0.505472
251 1 0.868551 0.752211 0.619237
252 1 0.749217 0.880798 0.628848
13 1 0.000878069 -0.00296206 0.752104
14 1 0.120977 0.124786 0.751269
15 1 0.12292 0.00961877 0.87145
16 1 0.000237745 0.124454 0.869644
29 1 -0.00386127 0.248166 0.746119
31 1 0.124507 0.248579 0.877732
77 1 0.253172 0.00462389 0.755958
80 1 0.247312 0.1322 0.8739
93 1 0.250817 0.252573 0.750356
78 1 0.382901 0.124166 0.744307
79 1 0.378308 -0.0040288 0.868211
95 1 0.371577 0.254209 0.87584
141 1 0.501203 -0.00376205 0.752138
142 1 0.62381 0.12558 0.753118
143 1 0.621472 0.00468151 0.879957
144 1 0.489946 0.125716 0.877393
157 1 0.505071 0.243737 0.745396
159 1 0.627285 0.249034 0.875043
205 1 0.753821 0.00648772 0.752609
206 1 0.874991 0.122562 0.747193
207 1 0.874026 -0.00814212 0.875376
208 1 0.752657 0.125884 0.870523
221 1 0.740943 0.251728 0.742965
223 1 0.877573 0.252506 0.87316
30 1 0.117847 0.378672 0.746746
32 1 0.00432878 0.380384 0.870513
45 1 -0.001516 0.503993 0.747705
46 1 0.124003 0.626269 0.753719
47 1 0.128619 0.489153 0.868389
48 1 0.00209946 0.633636 0.879168
96 1 0.246361 0.367693 0.872376
109 1 0.250031 0.508714 0.744728
112 1 0.251071 0.621742 0.875555
94 1 0.371229 0.380535 0.746015
110 1 0.379231 0.626147 0.753716
111 1 0.381679 0.505808 0.87486
158 1 0.629412 0.378056 0.744798
160 1 0.502852 0.376781 0.875466
173 1 0.505476 0.497795 0.747009
174 1 0.624348 0.622883 0.744659
175 1 0.615677 0.501502 0.869689
176 1 0.50021 0.633564 0.882828
222 1 0.874832 0.373904 0.745832
224 1 0.737784 0.36822 0.882433
237 1 0.756233 0.496818 0.748484
238 1 0.879481 0.631856 0.748484
239 1 0.877138 0.493924 0.879294
240 1 0.74624 0.617855 0.868486
61 1 0.00896984 0.752213 0.746341
62 1 0.127806 0.874353 0.758275
63 1 0.124387 0.745129 0.873007
64 1 0.00163973 0.873905 0.87671
125 1 0.246059 0.750708 0.750169
128 1 0.253191 0.871292 0.877153
126 1 0.374796 0.882055 0.74771
127 1 0.370495 0.751611 0.875076
189 1 0.500417 0.753826 0.74614
190 1 0.628582 0.879401 0.749684
191 1 0.630263 0.751644 0.874908
192 1 0.495343 0.87444 0.874321
253 1 0.74786 0.750154 0.749311
254 1 0.87648 0.875371 0.743828
255 1 0.867743 0.753701 0.8663
256 1 0.752063 0.878359 0.876647
ITEM: TIMESTEP
200
ITEM: NUMBER OF ATOMS
256
ITEM: BOX BOUNDS pp pp pp
0.0000000000000000e+00 2.1039999999999999e+01
0.0000000000000000e+00 2.1039999999999999e+01
0.0000000000000000e+00 2.1039999999999999e+01
ITEM: ATOMS id type xs ys zs
1 1 0.00492337 0.00697548 -0.00762371
2 1 0.121908 0.132017 -0.00258194
3 1 0.122422 0.00110677 0.118986
4 1 -0.00372124 0.120225 0.127587
5 1 -0.00286404 0.00247517 0.256495
6 1 0.11199 0.118894 0.252006
17 1 -0.00452554 0.247565 -0.00397974
19 1 0.112683 0.247992 0.135527
21 1 -0.00488667 0.254001 0.249771
65 1 0.251067 -0.000627291 0.00479084
68 1 0.235001 0.127775 0.124077
69 1 0.243794 0.0111494 0.24565
81 1 0.243068 0.258039 0.0037363
85 1 0.241059 0.237823 0.250695
66 1 0.368372 0.130833 -0.000635487
67 1 0.377363 -0.00697571 0.128318
70 1 0.377553 0.119779 0.236098
83 1 0.378829 0.252134 0.125563
129 1 0.499116 -0.00071242 -0.0051396
130 1 0.610758 0.130767 -0.00839063
131 1 0.615846 -0.00875897 0.122182
132 1 0.497606 0.113757 0.119718
133 1 0.506539 -0.0053412 0.253276
134 1 0.633597 0.123127 0.23956
145 1 0.497625 0.252856 -0.00256289
147 1 0.617535 0.247811 0.122147
149 1 0.511311 0.253506 0.250138
193 1 0.750296 0.00583522 0.00532958
194 1 0.882505 0.117901 -0.00110931
195 1 0.870865 -0.0084549 0.134589
196 1 0.75029 0.128478 0.124042
197 1 0.748061 0.000746841 0.255315
198 1 0.873917 0.13041 0.250608
209 1 0.752691 0.236585 0.00299817
211 1 0.879508 0.248716 0.128911
213 1 0.744727 0.248326 0.251125
18 1 0.122843 0.376819 0.0107964
20 1 -0.00883582 0.384885 0.126145
22 1 0.115758 0.375118 0.260791
33 1 0.00498576 0.507709 -0.00284179
34 1 0.126196 0.625363 0.00399536
35 1 0.119855 0.495063 0.129908
36 1 0.00696833 0.624853 0.131045
37 1 0.00354211 0.502806 0.250663
38 1 0.126778 0.630686 0.259243
84 1 0.245296 0.378751 0.134569
97 1 0.247431 0.494503 -0.00890669
100 1 0.238872 0.619806 0.121
101 1 0.241816 0.505051 0.253366
82 1 0.36446 0.374281 0.0021057
86 1 0.382762 0.383073 0.247087
98 1 0.375282 0.61337 0.0163762
99 1 0.377019 0.492321 0.126717
102 1 0.368175 0.62128 0.238468
146 1 0.62319 0.36866 0.00789585
148 1 0.505049 0.376412 0.125426
150 1 0.625553 0.380551 0.258023
161 1 0.51175 0.504244 0.0026733
162 1 0.629465 0.634643 0.00179518
163 1 0.627466 0.494151 0.126564
164 1 0.513584 0.6237 0.129245
165 1 0.50321 0.503884 0.251475
166 1 0.634126 0.623363 0.244773
210 1 0.882194 0.37856 -0.0042508
212 1 0.748984 0.364356 0.117103
214 1 0.863489 0.367217 0.248567
225 1 0.741226 0.493458 -0.00245471
226 1 0.873628 0.629149 -0.00899113
227 1 0.871577 0.499061 0.119584
228 1 0.749174 0.612451 0.117164
229 1 0.759398 0.497898 0.248787
230 1 0.879423 0.627158 0.253937
49 1 -0.0042293 0.757866 0.00448292
50 1 0.125686 0.874489 0.00223593
51 1 0.117649 0.754746 0.133171
52 1 0.000813961 0.886287 0.124688
53 1 -0.0034907 0.749895 0.251949
54 1 0.127588 0.887138 0.248942
113 1 0.249478 0.753569 -0.00470772
116 1 0.247987 0.868851 0.119722
117 1 0.24896 0.74849 0.248783
114 1 0.381432 0.879562 -0.0010312
115 1 0.37305 0.75428 0.119094
118 1 0.372902 0.876547 0.253431
177 1 0.496446 0.744895 0.00514121
178 1 0.620715 0.871426 0.00183649
179 1 0.627397 0.748708 0.125996
180 1 0.496907 0.871941 0.117801
181 1 0.50544 0.756843 0.246896
182 1 0.627637 0.872064 0.248204
241 1 0.744544 0.754222 -0.0020441
242 1 0.868535 0.870972 0.00607781
243 1 0.876244 0.744691 0.130623
244 1 0.747393 0.862656 0.124928
245 1 0.752404 0.747058 0.246084
246 1 0.874368 0.876657 0.256632
7 1 0.12384 0.00715377 0.376176
8 1 -0.00396848 0.12705 0.387373
9 1 0.00150729 -0.00181478 0.507887
10 1 0.126133 0.122492 0.515716
11 1 0.130437 -0.00929994 0.638449
12 1 -0.00452931 0.127511 0.619893
23 1 0.120178 0.240271 0.380547
25 1 0.000654305 0.251562 0.49906
27 1 0.122073 0.249749 0.630803
72 1 0.257247 0.130815 0.376
73 1 0.247516 -0.000916439 0.510248
76 1 0.24745 0.127683 0.628277
89 1 0.249003 0.249127 0.500628
71 1 0.372131 0.0109515 0.372573
74 1 0.377732 0.121764 0.507719
75 1 0.369142 0.000440692 0.636152
87 1 0.378699 0.248849 0.388768
91 1 0.383381 0.243515 0.620332
135 1 0.630375 0.000962901 0.382867
136 1 0.5066 0.121855 0.367677
137 1 0.495901 -0.00251641 0.503509
138 1 0.628619 0.126515 0.503358
139 1 0.625829 -0.00273227 0.626608
140 1 0.504728 0.113338 0.626409
151 1 0.630629 0.251219 0.37993
153 1 0.506578 0.250996 0.504354
155 1 0.62623 0.252745 0.620883
199 1 0.879178 1.36309e-05 0.377601
200 1 0.752861 0.129483 0.375164
201 1 0.755751 0.0061301 0.498889
202 1 0.869953 0.131392 0.50307
203 1 0.884658 0.000881887 0.626302
204 1 0.747854 0.124415 0.638326
215 1 0.873032 0.252971 0.372567
217 1 0.753523 0.24715 0.507931
219 1 0.871339 0.250179 0.625533
24 1 -0.00783398 0.375569 0.368926
26 1 0.135849 0.370163 0.497365
28 1 0.00368912 0.375017 0.625497
39 1 0.130753 0.496902 0.381778
40 1 0.0026335 0.6206 0.375087
41 1 0.00807498 0.493861 0.501989
42 1 0.135892 0.622509 0.498988
43 1 0.128384 0.497748 0.619697
44 1 0.00889569 0.615653 0.623727
88 1 0.255072 0.366007 0.364595
92 1 0.239836 0.370879 0.627589
104 1 0.251772 0.624625 0.373653
105 1 0.251467 0.499864 0.495242
108 1 0.254067 0.628866 0.628396
90 1 0.366396 0.380056 0.508654
103 1 0.378203 0.492237 0.376408
106 1 0.367935 0.61681 0.494821
107 1 0.368178 0.492609 0.624857
152 1 0.493836 0.372523 0.374973
154 1 0.630752 0.372678 0.498501
156 1 0.507166 0.370563 0.624325
167 1 0.620138 0.504203 0.37104
168 1 0.491558 0.619442 0.374758
169 1 0.505983 0.488437 0.502846
170 1 0.621555 0.627708 0.49348
171 1 0.623033 0.502997 0.620831
172 1 0.484309 0.615836 0.622363
216 1 0.750379 0.372183 0.377304
218 1 0.886424 0.374747 0.497385
220 1 0.756238 0.377128 0.617049
231 1 0.878546 0.502824 0.36846
232 1 0.751129 0.630397 0.375308
233 1 0.746715 0.499807 0.492823
234 1 0.877641 0.630303 0.500065
235 1 0.875491 0.498362 0.613338
236 1 0.761425 0.62357 0.624299
55 1 0.11751 0.753493 0.379711
56 1 -0.00320313 0.87491 0.373538
57 1 0.0120234 0.746717 0.507127
58 1 0.126561 0.881744 0.49736
59 1 0.132988 0.748946 0.618753
60 1 0.00127841 0.871283 0.625299
120 1 0.243805 0.876804 0.368943
121 1 0.252771 0.74698 0.498126
124 1 0.245572 0.870305 0.624664
119 1 0.376565 0.745426 0.370348
122 1 0.372657 0.882338 0.497528
123 1 0.380879 0.746856 0.61925
183 1 0.618202 0.745858 0.374095
184 1 0.507563 0.880782 0.378387
185 1 0.501711 0.748512 0.505005
186 1 0.624386 0.87099 0.500054
187 1 0.624176 0.755567 0.63054
188 1 0.504382 0.876483 0.630599
247 1 0.878563 0.745304 0.375751
248 1 0.745256 0.876166 0.368656
249 1 0.751297 0.759395 0.488856
250 1 0.881813 0.87401 0.50436
251 1 0.866479 0.754135 0.617521
252 1 0.749875 0.885181 0.628938
13 1 0.00146881 -0.00555376 0.752492
14 1 0.119165 0.126791 0.747947
15 1 0.124616 0.0125272 0.872002
16 1 -0.00324602 0.125853 0.865999
29 1 -0.00612513 0.247442 0.743809
31 1 0.120754 0.250422 0.876951
77 1 0.252472 0.00859151 0.760549
80 1 0.247994 0.13629 0.873758
93 1 0.251368 0.252336 0.747692
78 1 0.384213 0.126081 0.74436
79 1 0.378241 -0.00376852 0.868576
95 1 0.37178 0.25743 0.874498
141 1 0.504853 -0.00466195 0.753864
142 1 0.621932 0.123204 0.755772
143 1 0.620923 0.00617948 0.881594
144 1 0.483806 0.127112 0.876527
157 1 0.507589 0.243456 0.744416
159 1 0.624455 0.246526 0.873701
205 1 0.754992 0.00627971 0.754873
206 1 0.877995 0.122368 0.74702
207 1 0.875865 -0.0117006 0.875946
208 1 0.755591 0.128016 0.869759
221 1 0.737706 0.254675 0.741539
223 1 0.877292 0.254802 0.87096
30 1 0.116496 0.378084 0.74356
32 1 0.00512223 0.38021 0.868828
45 1 -0.00428209 0.506387 0.748254
46 1 0.123766 0.624867 0.75473
47 1 0.132032 0.487726 0.86612
48 1 0.00159993 0.637315 0.880818
96 1 0.243953 0.366418 0.869279
109 1 0.249686 0.511617 0.743154
112 1 0.251799 0.620357 0.876954
94 1 0.369923 0.381584 0.745465
110 1 0.381965 0.627884 0.756494
111 1 0.386972 0.507636 0.875323
158 1 0.631845 0.380529 0.742022
160 1 0.503503 0.375472 0.875375
173 1 0.504169 0.496046 0.742955
174 1 0.623338 0.622851 0.740017
175 1 0.613339 0.50382 0.868007
176 1 0.501173 0.638351 0.884536
222 1 0.875089 0.372858 0.743947
224 1 0.734099 0.366632 0.885561
237 1 0.760659 0.494679 0.746956
238 1 0.883908 0.635774 0.74715
239 1 0.876815 0.493188 0.878103
240 1 0.744316 0.613052 0.865092
61 1 0.013053 0.753911 0.742077
62 1 0.130549 0.875679 0.76384
63 1 0.126653 0.744723 0.875711
64 1 0.0024837 0.872563 0.878594
125 1 0.246212 0.750708 0.749826
128 1 0.254199 0.873349 0.878335
126 1 0.372613 0.878913 0.74588
127 1 0.369469 0.751403 0.874849
189 1 0.500223 0.754999 0.747654
190 1 0.631756 0.882806 0.754148
191 1 0.631832 0.753314 0.872886
192 1 0.49562 0.871098 0.873915
253 1 0.745471 0.750525 0.746686
254 1 0.87715 0.874849 0.740798
255 1 0.864583 0.756609 0.863067
256 1 0.74982 0.881509 0.877025
ITEM: TIMESTEP
300
ITEM: NUMBER OF ATOMS
256
ITEM: BOX BOUNDS pp pp pp
0.0000000000000000e+00 2.1039999999999999e+01
0.0000000000000000e+00 2.1039999999999999e+01
0.0000000000000000e+00 2.1039999999999999e+01
ITEM: ATOMS id type xs ys zs
1 1 0.00615426 0.00206197 -0.0079844
2 1 0.120929 0.13318 -0.00114428
3 1 0.121467 0.0033617 0.118185
4 1 -0.00591577 0.117207 0.126443
5 1 -0.00720228 0.00144374 0.256664
6 1 0.109108 0.124505 0.253734
17 1 -0.00470781 0.250111 -0.00224713
19 1 0.109896 0.252174 0.132417
21 1 -0.00560044 0.252073 0.256338
65 1 0.252618 0.00159842 0.00143859
68 1 0.235844 0.130176 0.119339
69 1 0.246212 0.0109436 0.245631
81 1 0.239555 0.255691 0.00919429
85 1 0.240703 0.239873 0.248819
66 1 0.362825 0.130465 0.00300092
67 1 0.373433 -0.0104208 0.125378
70 1 0.377787 0.124626 0.238114
83 1 0.378104 0.253338 0.127934
129 1 0.494504 -0.000899258 -0.0067891
130 1 0.614346 0.128613 -0.00472218
131 1 0.621387 -0.00898064 0.120879
132 1 0.498991 0.116747 0.11874
133 1 0.507475 -0.00673752 0.252829
134 1 0.624497 0.119524 0.243689
145 1 0.490231 0.25686 -0.00285113
147 1 0.619304 0.242807 0.122023
149 1 0.508981 0.250123 0.252773
193 1 0.747366 0.00627942 0.00640063
194 1 0.878918 0.118046 -0.00175495
195 1 0.866666 -0.00473138 0.133991
196 1 0.755281 0.123502 0.122148
197 1 0.749267 0.00151241 0.252563
198 1 0.873511 0.125936 0.253909
209 1 0.755043 0.235745 -0.0014097
211 1 0.877342 0.248946 0.120518
213 1 0.74219 0.251593 0.248467
18 1 0.117286 0.374116 0.00968352
20 1 -0.00926384 0.380524 0.127969
22 1 0.119616 0.372355 0.25997
33 1 0.00621823 0.50933 -0.00452875
34 1 0.123547 0.627269 -0.00060036
35 1 0.121851 0.497817 0.131726
36 1 0.00484666 0.624432 0.129722
37 1 0.0011323 0.504123 0.253181
38 1 0.124711 0.630853 0.259754
84 1 0.243602 0.375728 0.140912
97 1 0.246187 0.493213 -0.0077492
100 1 0.239543 0.620005 0.124502
101 1 0.242259 0.501776 0.253457
82 1 0.368726 0.376959 0.00117126
86 1 0.380699 0.374537 0.24831
98 1 0.375463 0.615038 0.0171126
99 1 0.377088 0.492934 0.124089
102 1 0.369893 0.622079 0.235587
146 1 0.617573 0.367648 0.00317144
148 1 0.502556 0.37756 0.126245
150 1 0.62908 0.379814 0.25641
161 1 0.511771 0.504001 0.00446726
162 1 0.629351 0.630349 -0.00452447
163 1 0.63122 0.489632 0.12976
164 1 0.503959 0.623355 0.125508
165 1 0.50224 0.505014 0.247628
166 1 0.642211 0.622356 0.253955
210 1 0.88045 0.372832 -0.00278051
212 1 0.752521 0.362377 0.120034
214 1 0.864057 0.37089 0.245444
225 1 0.739876 0.492941 -0.00794361
226 1 0.869524 0.630995 -0.00974276
227 1 0.87175 0.502039 0.117866
228 1 0.754254 0.617276 0.118171
229 1 0.756126 0.498808 0.248564
230 1 0.876207 0.622157 0.248305
49 1 -0.00426763 0.757295 0.00768947
50 1 0.123476 0.875359 -0.00257126
51 1 0.117666 0.756901 0.13342
52 1 -0.000835887 0.885018 0.12614
53 1 -4.49972e-05 0.755619 0.253495
54 1 0.123476 0.886312 0.246705
113 1 0.249611 0.746986 -0.00165316
116 1 0.249047 0.871964 0.124125
117 1 0.248631 0.750018 0.247869
114 1 0.374422 0.878954 -0.00622542
115 1 0.370642 0.750259 0.122753
118 1 0.372646 0.877068 0.254804
177 1 0.496161 0.748698 0.00861484
178 1 0.618775 0.872213 -0.00259094
179 1 0.626279 0.750129 0.127075
180 1 0.500532 0.870586 0.124654
181 1 0.500685 0.75497 0.246353
182 1 0.627858 0.872822 0.246848
241 1 0.751368 0.748858 -0.00614319
242 1 0.869836 0.87244 0.00664704
243 1 0.877093 0.743048 0.127486
244 1 0.749025 0.871667 0.128461
245 1 0.752927 0.743692 0.250639
246 1 0.872505 0.872074 0.255768
7 1 0.124643 0.00985688 0.383493
8 1 -0.00706888 0.123421 0.387711
9 1 0.00699024 -0.000240351 0.50364
10 1 0.124885 0.119962 0.513295
11 1 0.126668 -0.00677343 0.642621
12 1 -0.00352622 0.128879 0.622864
23 1 0.121579 0.239569 0.379186
25 1 0.00142323 0.255134 0.503788
27 1 0.120013 0.248832 0.629207
72 1 0.254152 0.127636 0.380545
73 1 0.249976 0.00345691 0.507748
76 1 0.251478 0.128348 0.634413
89 1 0.251157 0.245183 0.504298
71 1 0.372267 0.00879707 0.371849
74 1 0.377823 0.117392 0.506993
75 1 0.368846 3.71366e-05 0.629702
87 1 0.383897 0.24756 0.388265
91 1 0.381812 0.248563 0.623499
135 1 0.629905 0.00477749 0.383713
136 1 0.50916 0.124542 0.367853
137 1 0.498127 -0.00147686 0.504253
138 1 0.629144 0.12466 0.504832
139 1 0.628324 -0.000115116 0.624528
140 1 0.509538 0.112653 0.62448
151 1 0.628636 0.248612 0.380775
153 1 0.505421 0.246659 0.497373
155 1 0.631014 0.24687 0.621961
199 1 0.876369 0.00312275 0.381931
200 1 0.753002 0.128537 0.375842
201 1 0.758041 0.00421513 0.502702
202 1 0.872423 0.127668 0.503687
203 1 0.877632 0.00222456 0.627905
204 1 0.745994 0.121849 0.632126
215 1 0.872103 0.250074 0.376813
217 1 0.749895 0.250262 0.504307
219 1 0.874447 0.25113 0.62779
24 1 -0.00709319 0.376854 0.371035
26 1 0.130448 0.36893 0.49224
28 1 -0.000262818 0.374325 0.620924
39 1 0.124057 0.494045 0.376389
40 1 0.00698392 0.619896 0.382235
41 1 0.0096839 0.494173 0.49586
42 1 0.132404 0.624557 0.500327
43 1 0.133853 0.498747 0.620878
44 1 0.00930556 0.621202 0.619534
88 1 0.255969 0.363941 0.362426
92 1 0.244509 0.371202 0.630418
104 1 0.254728 0.627689 0.369301
105 1 0.256032 0.493856 0.500689
108 1 0.256982 0.630373 0.625787
90 1 0.367081 0.370977 0.505603
103 1 0.373153 0.494889 0.376259
106 1 0.371726 0.616043 0.496187
107 1 0.367899 0.499236 0.624726
152 1 0.499632 0.368233 0.379217
154 1 0.633141 0.374474 0.495703
156 1 0.501218 0.373936 0.628109
167 1 0.624213 0.505625 0.374101
168 1 0.490219 0.621269 0.373919
169 1 0.501773 0.489235 0.499834
170 1 0.622395 0.626044 0.498477
171 1 0.63042 0.504908 0.617204
172 1 0.488161 0.611419 0.618558
216 1 0.752846 0.374648 0.37972
218 1 0.881996 0.374246 0.496481
220 1 0.755457 0.380195 0.613875
231 1 0.877485 0.501303 0.373707
232 1 0.750414 0.627431 0.373712
233 1 0.747825 0.502607 0.48981
234 1 0.882175 0.62774 0.497542
235 1 0.879586 0.498835 0.612578
236 1 0.755444 0.622356 0.623276
55 1 0.121088 0.754889 0.37692
56 1 0.000418038 0.874747 0.377395
57 1 0.00727792 0.744582 0.507852
58 1 0.124397 0.880598 0.496049
59 1 0.132996 0.747031 0.621756
60 1 0.00962619 0.870134 0.6263
120 1 0.246497 0.878518 0.371545
121 1 0.256737 0.751375 0.493645
124 1 0.25306 0.867414 0.627473
119 1 0.378149 0.747613 0.370004
122 1 0.370997 0.880057 0.496528
123 1 0.374627 0.752768 0.620622
183 1 0.617709 0.745904 0.369723
184 1 0.503565 0.878455 0.377824
185 1 0.499889 0.748966 0.502002
186 1 0.626947 0.873273 0.503538
187 1 0.627897 0.753258 0.626147
188 1 0.500823 0.880025 0.627415
247 1 0.881376 0.751516 0.378422
248 1 0.748046 0.873603 0.371589
249 1 0.749264 0.760185 0.491223
250 1 0.879522 0.8758 0.498328
251 1 0.869013 0.754963 0.619658
252 1 0.751757 0.886282 0.625182
13 1 0.00153437 -0.006939 0.752316
14 1 0.119494 0.129475 0.743664
15 1 0.128687 0.0100058 0.876389
16 1 -0.00738811 0.127987 0.866593
29 1 -0.0053192 0.2495 0.744564
31 1 0.115391 0.254093 0.872316
77 1 0.249561 0.0106668 0.761439
80 1 0.250652 0.137887 0.874956
93 1 0.251624 0.249267 0.744066
78 1 0.378957 0.129412 0.747769
79 1 0.375541 -0.000558572 0.874042